# LAMMPS data file written by OVITO Basic 3.5.2
4080 atoms
4004 bonds
4000 angles
3996 dihedrals
3 atom types
2 bond types
2 angle types
2 dihedral types
0.0 8.6337 xlo xhi
0.2 10.1694 ylo yhi
0.0 1142.5 zlo zhi

Masses

1 196.9665  # Au
2 14.0107  # C
3 32.065  # S

Atoms  # full

1 1 3 0.0 0.728942441 5.1628262073 13.6642143514
2 1 2 0.0 0.5156746562 5.2100346928 15.3746435233
3 1 2 0.0 1.4489678759 4.2984400857 16.1442376556
4 1 2 0.0 1.1697799888 4.42478525 17.6276145845
5 1 2 0.0 2.1030732084 3.5131906429 18.3972087169
6 1 2 0.0 1.8238853213 3.6395358072 19.8805856458
7 1 2 0.0 2.7571785409 2.7279412001 20.6501797781
8 1 2 0.0 2.4779906538 2.8542863644 22.133556707
9 1 2 0.0 3.4112838735 1.9426917573 22.9031508393
10 1 2 0.0 3.1320959863 2.0690369216 24.3865277682
11 1 2 0.0 4.065389206 1.1574423146 25.1561219006
12 1 2 0.0 3.7862013189 1.2837874788 26.6394988295
13 1 2 0.0 4.7194945385 0.3721928718 27.4090929618
14 1 2 0.0 4.4403066514 0.498538036 28.8924698907
15 1 2 0.0 5.373599871 -0.413056571 29.662064023
16 1 2 0.0 5.0944119839 -0.2867114067 31.1454409519
17 1 2 0.0 6.0277052036 -1.1983060138 31.9150350843
18 1 2 0.0 5.7485173164 -1.0719608495 33.3984120132
19 1 2 0.0 6.6818105361 -1.9835554566 34.1680061455
20 1 2 0.0 6.402622649 -1.8572102923 35.6513830744
21 1 2 0.0 7.3359158686 -2.7688048994 36.4209772067
22 1 2 0.0 7.0567279815 -2.6424597351 37.9043541356
23 1 2 0.0 7.9900212011 -3.5540543422 38.673948268
24 1 2 0.0 7.710833314 -3.4277091779 40.1573251969
25 1 2 0.0 8.6441265337 -4.3393037849 40.9269193292
26 1 2 0.0 8.3649386466 -4.2129586207 42.4102962581
27 1 2 0.0 9.2982318662 -5.1245532277 43.1798903904
28 1 2 0.0 9.0190439791 -4.9982080634 44.6632673193
29 1 2 0.0 9.9523371987 -5.9098026705 45.4328614517
30 1 2 0.0 9.6731493116 -5.7834575062 46.9162383805
31 1 2 0.0 10.6064425313 -6.6950521133 47.6858325129
32 1 2 0.0 10.3272546441 -6.568706949 49.1692094418
33 1 2 0.0 11.2605478638 -7.4803015561 49.9388035741
34 1 2 0.0 10.9813599767 -7.3539563918 51.422180503
35 1 2 0.0 11.9146531963 -8.2655509989 52.1917746354
36 1 2 0.0 11.6354653092 -8.1392058346 53.6751515642
37 1 2 0.0 12.5687585288 -9.0508004417 54.4447456966
38 1 2 0.0 12.2895706417 -8.9244552774 55.9281226255
39 1 2 0.0 13.2228638614 -9.8360498844 56.6977167578
40 1 2 0.0 12.9436759742 -9.7097047202 58.1810936867
41 1 2 0.0 13.8769691939 -10.6212993272 58.9506878191
42 1 2 0.0 13.5977813068 -10.4949541629 60.4340647479
43 1 2 0.0 14.5310745264 -11.40654877 61.2036588803
44 1 2 0.0 14.2518866393 -11.2802036057 62.6870358092
45 1 2 0.0 15.1851798589 -12.1917982128 63.4566299415
46 1 2 0.0 14.9059919718 -12.0654530485 64.9400068704
47 1 2 0.0 15.8392851915 -12.9770476556 65.7096010028
48 1 2 0.0 15.5600973044 -12.8507024913 67.1929779316
49 1 2 0.0 16.493390524 -13.7622970984 67.962572064
50 1 2 0.0 16.2142026369 -13.6359519341 69.4459489929
51 1 2 0.0 17.1474958565 -14.5475465411 70.2155431252
52 1 2 0.0 16.8683079694 -14.4212013769 71.6989200541
53 1 2 0.0 17.801601189 -15.3327959839 72.4685141865
54 1 2 0.0 17.5224133019 -15.2064508197 73.9518911153
55 1 2 0.0 18.4557065216 -16.1180454267 74.7214852477
56 1 2 0.0 18.1765186345 -15.9917002624 76.2048621766
57 1 2 0.0 19.1098118541 -16.9032948695 76.9744563089
58 1 2 0.0 18.830623967 -16.7769497052 78.4578332378
59 1 2 0.0 19.7639171866 -17.6885443123 79.2274273702
60 1 2 0.0 19.4847292995 -17.562199148 80.710804299
61 1 2 0.0 20.4180225192 -18.4737937551 81.4803984314
62 1 2 0.0 20.138834632 -18.3474485908 82.9637753603
63 1 2 0.0 21.0721278517 -19.2590431979 83.7333694926
64 1 2 0.0 20.7929399646 -19.1326980336 85.2167464215
65 1 2 0.0 21.7262331842 -20.0442926406 85.9863405538
66 1 2 0.0 21.4470452971 -19.9179474764 87.4697174827
67 1 2 0.0 22.3803385167 -20.8295420834 88.2393116151
68 1 2 0.0 22.1011506296 -20.7031969191 89.722688544
69 1 2 0.0 23.0344438493 -21.6147915262 90.4922826763
70 1 2 0.0 22.7552559621 -21.4884463619 91.9756596052
71 1 2 0.0 23.6885491818 -22.400040969 92.7452537375
72 1 2 0.0 23.4093612947 -22.2736958047 94.2286306664
73 1 2 0.0 24.3426545143 -23.1852904118 94.9982247988
74 1 2 0.0 24.0634666272 -23.0589452475 96.4816017277
75 1 2 0.0 24.9967598468 -23.9705398546 97.25119586
76 1 2 0.0 24.7175719597 -23.8441946903 98.7345727889
77 1 2 0.0 25.6508651794 -24.7557892973 99.5041669212
78 1 2 0.0 25.3716772923 -24.6294441331 100.9875438501
79 1 2 0.0 26.3049705119 -25.5410387401 101.7571379825
80 1 2 0.0 26.0257826248 -25.4146935759 103.2405149114
81 1 2 0.0 26.9590758444 -26.3262881829 104.0101090437
82 1 2 0.0 26.6798879573 -26.1999430186 105.4934859726
83 1 2 0.0 27.613181177 -27.1115376257 106.2630801049
84 1 2 0.0 27.3339932898 -26.9851924614 107.7464570338
85 1 2 0.0 28.2672865095 -27.8967870685 108.5160511662
86 1 2 0.0 27.9880986224 -27.7704419042 109.9994280951
87 1 2 0.0 28.921391842 -28.6820365113 110.7690222274
88 1 2 0.0 28.6422039549 -28.555691347 112.2523991563
89 1 2 0.0 29.5754971745 -29.4672859541 113.0219932886
90 1 2 0.0 29.2963092874 -29.3409407898 114.5053702175
91 1 2 0.0 30.2296025071 -30.2525353968 115.2749643499
92 1 2 0.0 29.9504146199 -30.1261902326 116.7583412788
93 1 2 0.0 30.8837078396 -31.0377848396 117.5279354111
94 1 2 0.0 30.6045199525 -30.9114396753 119.01131234
95 1 2 0.0 31.5378131721 -31.8230342824 119.7809064723
96 1 2 0.0 31.258625285 -31.6966891181 121.2642834012
97 1 2 0.0 32.1919185046 -32.6082837252 122.0338775336
98 1 2 0.0 31.9127306175 -32.4819385609 123.5172544625
99 1 2 0.0 32.8460238372 -33.393533168 124.2868485948
100 1 2 0.0 32.5668359501 -33.2671880037 125.7702255237
101 1 2 0.0 33.5001291697 -34.1787826108 126.539819656
102 1 2 0.0 33.2209412826 -34.0524374465 128.0231965849
103 1 2 0.0 34.1542345022 -34.9640320535 128.7927907173
104 1 2 0.0 33.8750466151 -34.8376868893 130.2761676461
105 1 2 0.0 34.8083398347 -35.7492814963 131.0457617785
106 1 2 0.0 34.5291519476 -35.6229363321 132.5291387074
107 1 2 0.0 35.4624451673 -36.5345309391 133.2987328397
108 1 2 0.0 35.1832572802 -36.4081857748 134.7821097686
109 1 2 0.0 36.1165504998 -37.3197803819 135.551703901
110 1 2 0.0 35.8373626127 -37.1934352176 137.0350808298
111 1 2 0.0 36.7706558323 -38.1050298247 137.8046749622
112 1 2 0.0 36.4914679452 -37.9786846604 139.2880518911
113 1 2 0.0 37.4247611649 -38.8902792675 140.0576460234
114 1 2 0.0 37.1455732777 -38.7639341032 141.5410229523
115 1 2 0.0 38.0788664974 -39.6755287103 142.3106170847
116 1 2 0.0 37.7996786103 -39.549183546 143.7939940135
117 1 2 0.0 38.7329718299 -40.460778153 144.5635881459
118 1 2 0.0 38.4537839428 -40.3344329888 146.0469650748
119 1 2 0.0 39.3870771624 -41.2460275958 146.8165592071
120 1 2 0.0 39.1078892753 -41.1196824315 148.299936136
121 1 2 0.0 40.041182495 -42.0312770386 149.0695302684
122 1 2 0.0 39.7619946078 -41.9049318743 150.5529071972
123 1 2 0.0 40.6952878275 -42.8165264814 151.3225013296
124 1 2 0.0 40.4160999404 -42.6901813171 152.8058782585
125 1 2 0.0 41.34939316 -43.6017759242 153.5754723908
126 1 2 0.0 41.0702052729 -43.4754307599 155.0588493197
127 1 2 0.0 42.0034984925 -44.387025367 155.8284434521
128 1 2 0.0 41.7243106054 -44.2606802027 157.3118203809
129 1 2 0.0 42.6576038251 -45.1722748098 158.0814145133
130 1 2 0.0 42.378415938 -45.0459296455 159.5647914422
131 1 2 0.0 43.3117091576 -45.9575242525 160.3343855745
132 1 2 0.0 43.0325212705 -45.8311790883 161.8177625034
133 1 2 0.0 43.9658144901 -46.7427736953 162.5873566358
134 1 2 0.0 43.686626603 -46.616428531 164.0707335646
135 1 2 0.0 44.6199198227 -47.5280231381 164.840327697
136 1 2 0.0 44.3407319355 -47.4016779738 166.3237046259
137 1 2 0.0 45.2740251552 -48.3132725809 167.0932987582
138 1 2 0.0 44.9948372681 -48.1869274166 168.5766756871
139 1 2 0.0 45.9281304877 -49.0985220237 169.3462698194
140 1 2 0.0 45.6489426006 -48.9721768594 170.8296467483
141 1 2 0.0 46.5822358202 -49.8837714665 171.5992408807
142 1 2 0.0 46.3030479331 -49.7574263022 173.0826178096
143 1 2 0.0 47.2363411528 -50.6690209092 173.8522119419
144 1 2 0.0 46.9571532656 -50.542675745 175.3355888708
145 1 2 0.0 47.8904464853 -51.454270352 176.1051830031
146 1 2 0.0 47.6112585982 -51.3279251878 177.588559932
147 1 2 0.0 48.5445518178 -52.2395197948 178.3581540644
148 1 2 0.0 48.2653639307 -52.1131746305 179.8415309933
149 1 2 0.0 49.1986571503 -53.0247692376 180.6111251256
150 1 2 0.0 48.9194692632 -52.8984240733 182.0945020545
151 1 2 0.0 49.8527624829 -53.8100186804 182.8640961868
152 1 2 0.0 49.5735745957 -53.6836735161 184.3474731157
153 1 2 0.0 50.5068678154 -54.5952681232 185.1170672481
154 1 2 0.0 50.2276799283 -54.4689229589 186.600444177
155 1 2 0.0 51.1609731479 -55.380517566 187.3700383093
156 1 2 0.0 50.8817852608 -55.2541724017 188.8534152382
157 1 2 0.0 51.8150784804 -56.1657670087 189.6230093705
158 1 2 0.0 51.5358905933 -56.0394218445 191.1063862994
159 1 2 0.0 52.469183813 -56.9510164515 191.8759804318
160 1 2 0.0 52.1899959259 -56.8246712872 193.3593573607
161 1 2 0.0 53.1232891455 -57.7362658943 194.128951493
162 1 2 0.0 52.8441012584 -57.60992073 195.6123284219
163 1 2 0.0 53.777394478 -58.5215153371 196.3819225542
164 1 2 0.0 53.4982065909 -58.3951701728 197.8652994831
165 1 2 0.0 54.4314998106 -59.3067647799 198.6348936155
166 1 2 0.0 54.1523119234 -59.1804196156 200.1182705444
167 1 2 0.0 55.0856051431 -60.0920142227 200.8878646767
168 1 2 0.0 54.806417256 -59.9656690584 202.3712416056
169 1 2 0.0 55.7397104756 -60.8772636654 203.1408357379
170 1 2 0.0 55.4605225885 -60.7509185012 204.6242126668
171 1 2 0.0 56.3938158081 -61.6625131082 205.3938067992
172 1 2 0.0 56.114627921 -61.536167944 206.8771837281
173 1 2 0.0 57.0479211407 -62.447762551 207.6467778604
174 1 2 0.0 56.7687332535 -62.3214173867 209.1301547893
175 1 2 0.0 57.7020264732 -63.2330119938 209.8997489216
176 1 2 0.0 57.4228385861 -63.1066668295 211.3831258505
177 1 2 0.0 58.3561318057 -64.0182614366 212.1527199829
178 1 2 0.0 58.0769439186 -63.8919162723 213.6360969118
179 1 2 0.0 59.0102371382 -64.8035108794 214.4056910441
180 1 2 0.0 58.7310492511 -64.6771657151 215.889067973
181 1 2 0.0 59.6643424708 -65.5887603222 216.6586621053
182 1 2 0.0 59.3851545837 -65.4624151579 218.1420390342
183 1 2 0.0 60.3184478033 -66.3740097649 218.9116331666
184 1 2 0.0 60.0392599162 -66.2476646007 220.3950100954
185 1 2 0.0 60.9725531358 -67.1592592077 221.1646042278
186 1 2 0.0 60.6933652487 -67.0329140434 222.6479811567
187 1 2 0.0 61.6266584683 -67.9445086505 223.417575289
188 1 2 0.0 61.3474705812 -67.8181634862 224.9009522179
189 1 2 0.0 62.2807638009 -68.7297580933 225.6705463503
190 1 2 0.0 62.0015759138 -68.603412929 227.1539232791
191 1 2 0.0 62.9348691334 -69.5150075361 227.9235174115
192 1 2 0.0 62.6556812463 -69.3886623718 229.4068943404
193 1 2 0.0 63.5889744659 -70.3002569789 230.1764884727
194 1 2 0.0 63.3097865788 -70.1739118146 231.6598654016
195 1 2 0.0 64.2430797985 -71.0855064216 232.429459534
196 1 2 0.0 63.9638919113 -70.9591612574 233.9128364628
197 1 2 0.0 64.897185131 -71.8707558644 234.6824305952
198 1 2 0.0 64.6179972439 -71.7444107002 236.1658075241
199 1 2 0.0 65.5512904635 -72.6560053072 236.9354016564
200 1 2 0.0 65.2721025764 -72.5296601429 238.4187785853
201 1 2 0.0 66.205395796 -73.44125475 239.1883727177
202 1 2 0.0 65.9262079089 -73.3149095857 240.6717496465
203 1 2 0.0 66.8595011286 -74.2265041928 241.4413437789
204 1 2 0.0 66.5803132414 -74.1001590285 242.9247207078
205 1 2 0.0 67.5136064611 -75.0117536356 243.6943148401
206 1 2 0.0 67.234418574 -74.8854084713 245.177691769
207 1 2 0.0 68.1677117936 -75.7970030784 245.9472859014
208 1 2 0.0 67.8885239065 -75.6706579141 247.4306628302
209 1 2 0.0 68.8218171261 -76.5822525211 248.2002569626
210 1 2 0.0 68.542629239 -76.4559073569 249.6836338915
211 1 2 0.0 69.4759224587 -77.3675019639 250.4532280238
212 1 2 0.0 69.1967345716 -77.2411567996 251.9366049527
213 1 2 0.0 70.1300277912 -78.1527514067 252.706199085
214 1 2 0.0 69.8508399041 -78.0264062424 254.1895760139
215 1 2 0.0 70.7841331237 -78.9380008495 254.9591701463
216 1 2 0.0 70.5049452366 -78.8116556852 256.4425470752
217 1 2 0.0 71.4382384563 -79.7232502923 257.2121412075
218 1 2 0.0 71.1590505691 -79.596905128 258.6955181364
219 1 2 0.0 72.0923437888 -80.5084997351 259.4651122687
220 1 2 0.0 71.8131559017 -80.3821545708 260.9484891976
221 1 2 0.0 72.7464491213 -81.2937491779 261.71808333
222 1 2 0.0 72.4672612342 -81.1674040136 263.2014602589
223 1 2 0.0 73.4005544538 -82.0789986206 263.9710543912
224 1 2 0.0 73.1213665667 -81.9526534564 265.4544313201
225 1 2 0.0 74.0546597864 -82.8642480634 266.2240254524
226 1 2 0.0 73.7754718992 -82.7379028991 267.7074023813
227 1 2 0.0 74.7087651189 -83.6494975062 268.4769965137
228 1 2 0.0 74.4295772318 -83.5231523419 269.9603734426
229 1 2 0.0 75.3628704514 -84.434746949 270.7299675749
230 1 2 0.0 75.0836825643 -84.3084017847 272.2133445038
231 1 2 0.0 76.0169757839 -85.2199963918 272.9829386361
232 1 2 0.0 75.7377878968 -85.0936512275 274.466315565
233 1 2 0.0 76.6710811165 -86.0052458346 275.2359096974
234 1 2 0.0 76.3918932294 -85.8789006703 276.7192866263
235 1 2 0.0 77.325186449 -86.7904952773 277.4888807586
236 1 2 0.0 77.0459985619 -86.6641501131 278.9722576875
237 1 2 0.0 77.9792917815 -87.5757447201 279.7418518198
238 1 2 0.0 77.7001038944 -87.4493995559 281.2252287487
239 1 2 0.0 78.633397114 -88.3609941629 281.9948228811
240 1 2 0.0 78.3542092269 -88.2346489986 283.47819981
241 1 2 0.0 79.2875024466 -89.1462436057 284.2477939423
242 1 2 0.0 79.0083145595 -89.0198984414 285.7311708712
243 1 2 0.0 79.9416077791 -89.9314930485 286.5007650035
244 1 2 0.0 79.662419892 -89.8051478842 287.9841419324
245 1 2 0.0 80.5957131116 -90.7167424913 288.7537360648
246 1 2 0.0 80.3165252245 -90.590397327 290.2371129937
247 1 2 0.0 81.2498184442 -91.5019919341 291.006707126
248 1 2 0.0 80.970630557 -91.3756467698 292.4900840549
249 1 2 0.0 81.9039237767 -92.2872413768 293.2596781872
250 1 2 0.0 81.6247358896 -92.1608962126 294.7430551161
251 1 2 0.0 82.5580291092 -93.0724908196 295.5126492485
252 1 2 0.0 82.2788412221 -92.9461456553 296.9960261774
253 1 2 0.0 83.2121344417 -93.8577402624 297.7656203097
254 1 2 0.0 82.9329465546 -93.7313950981 299.2489972386
255 1 2 0.0 83.8662397743 -94.6429897052 300.0185913709
256 1 2 0.0 83.5870518871 -94.5166445409 301.5019682998
257 1 2 0.0 84.5203451068 -95.428239148 302.2715624322
258 1 2 0.0 84.2411572197 -95.3018939837 303.754939361
259 1 2 0.0 85.1744504393 -96.2134885908 304.5245334934
260 1 2 0.0 84.8952625522 -96.0871434265 306.0079104223
261 1 2 0.0 85.8285557718 -96.9987380335 306.7775045546
262 1 2 0.0 85.5493678847 -96.8723928693 308.2608814835
263 1 2 0.0 86.4826611044 -97.7839874763 309.0304756159
264 1 2 0.0 86.2034732173 -97.6576423121 310.5138525447
265 1 2 0.0 87.1367664369 -98.5692369191 311.2834466771
266 1 2 0.0 86.8575785498 -98.4428917548 312.766823606
267 1 2 0.0 87.7908717694 -99.3544863619 313.5364177383
268 1 2 0.0 87.5116838823 -99.2281411976 315.0197946672
269 1 2 0.0 88.444977102 -100.1397358047 315.7893887996
270 1 2 0.0 88.1657892148 -100.0133906404 317.2727657284
271 1 2 0.0 89.0990824345 -100.9249852475 318.0423598608
272 1 2 0.0 88.8198945474 -100.7986400832 319.5257367897
273 1 2 0.0 89.753187767 -101.7102346903 320.295330922
274 1 2 0.0 89.4739998799 -101.583889526 321.7787078509
275 1 2 0.0 90.4072930995 -102.495484133 322.5483019833
276 1 2 0.0 90.1281052124 -102.3691389688 324.0316789121
277 1 2 0.0 91.0613984321 -103.2807335758 324.8012730445
278 1 2 0.0 90.7822105449 -103.1543884115 326.2846499734
279 1 2 0.0 91.7155037646 -104.0659830186 327.0542441057
280 1 2 0.0 91.4363158775 -103.9396378543 328.5376210346
281 1 2 0.0 92.3696090971 -104.8512324614 329.307215167
282 1 2 0.0 92.09042121 -104.7248872971 330.7905920958
283 1 2 0.0 93.0237144296 -105.6364819042 331.5601862282
284 1 2 0.0 92.7445265425 -105.5101367399 333.0435631571
285 1 2 0.0 93.6778197622 -106.421731347 333.8131572894
286 1 2 0.0 93.3986318751 -106.2953861827 335.2965342183
287 1 2 0.0 94.3319250947 -107.2069807897 336.0661283506
288 1 2 0.0 94.0527372076 -107.0806356255 337.5495052795
289 1 2 0.0 94.9860304272 -107.9922302325 338.3190994119
290 1 2 0.0 94.7068425401 -107.8658850683 339.8024763408
291 1 2 0.0 95.6401357597 -108.7774796753 340.5720704731
292 1 2 0.0 95.3609478726 -108.651134511 342.055447402
293 1 2 0.0 96.2942410923 -109.5627291181 342.8250415343
294 1 2 0.0 96.0150532052 -109.4363839538 344.3084184632
295 1 2 0.0 96.9483464248 -110.3479785609 345.0780125956
296 1 2 0.0 96.6691585377 -110.2216333966 346.5613895245
297 1 2 0.0 97.6024517573 -111.1332280037 347.3309836568
298 1 2 0.0 97.3232638702 -111.0068828394 348.8143605857
299 1 2 0.0 98.2565570899 -111.9184774465 349.583954718
300 1 2 0.0 97.9773692027 -111.7921322822 351.0673316469
301 1 2 0.0 98.9106624224 -112.7037268892 351.8369257793
302 1 2 0.0 98.6314745353 -112.577381725 353.3203027082
303 1 2 0.0 99.5647677549 -113.488976332 354.0898968405
304 1 2 0.0 99.2855798678 -113.3626311677 355.5732737694
305 1 2 0.0 100.2188730874 -114.2742257748 356.3428679017
306 1 2 0.0 99.9396852003 -114.1478806105 357.8262448306
307 1 2 0.0 100.87297842 -115.0594752176 358.595838963
308 1 2 0.0 100.5937905328 -114.9331300533 360.0792158919
309 1 2 0.0 101.5270837525 -115.8447246604 360.8488100242
310 1 2 0.0 101.2478958654 -115.7183794961 362.3321869531
311 1 2 0.0 102.181189085 -116.6299741032 363.1017810854
312 1 2 0.0 101.9020011979 -116.5036289389 364.5851580143
313 1 2 0.0 102.8352944175 -117.415223546 365.3547521467
314 1 2 0.0 102.5561065304 -117.2888783817 366.8381290756
315 1 2 0.0 103.4893997501 -118.2004729887 367.6077232079
316 1 2 0.0 103.210211863 -118.0741278245 369.0911001368
317 1 2 0.0 104.1435050826 -118.9857224315 369.8606942691
318 1 2 0.0 103.8643171955 -118.8593772672 371.344071198
319 1 2 0.0 104.7976104151 -119.7709718743 372.1136653304
320 1 2 0.0 104.518422528 -119.64462671 373.5970422593
321 1 2 0.0 105.4517157477 -120.5562213171 374.3666363916
322 1 2 0.0 105.1725278605 -120.4298761528 375.8500133205
323 1 2 0.0 106.1058210802 -121.3414707599 376.6196074528
324 1 2 0.0 105.8266331931 -121.2151255956 378.1029843817
325 1 2 0.0 106.7599264127 -122.1267202027 378.8725785141
326 1 2 0.0 106.4807385256 -122.0003750384 380.355955443
327 1 2 0.0 107.4140317452 -122.9119696454 381.1255495753
328 1 2 0.0 107.1348438581 -122.7856244812 382.6089265042
329 1 2 0.0 108.0681370778 -123.6972190882 383.3785206365
330 1 2 0.0 107.7889491906 -123.570873924 384.8618975654
331 1 2 0.0 108.7222424103 -124.482468531 385.6314916978
332 1 2 0.0 108.4430545232 -124.3561233667 387.1148686266
333 1 2 0.0 109.3763477428 -125.2677179738 387.884462759
334 1 2 0.0 109.0971598557 -125.1413728095 389.3678396879
335 1 2 0.0 110.0304530753 -126.0529674166 390.1374338202
336 1 2 0.0 109.7512651882 -125.9266222523 391.6208107491
337 1 2 0.0 110.6845584079 -126.8382168594 392.3904048815
338 1 2 0.0 110.4053705208 -126.7118716951 393.8737818103
339 1 2 0.0 111.3386637404 -127.6234663022 394.6433759427
340 1 2 0.0 111.0594758533 -127.4971211379 396.1267528716
341 1 2 0.0 111.9927690729 -128.4087157449 396.8963470039
342 1 2 0.0 111.7135811858 -128.2823705807 398.3797239328
343 1 2 0.0 112.6468744054 -129.1939651877 399.1493180652
344 1 2 0.0 112.3676865183 -129.0676200234 400.632694994
345 1 2 0.0 113.300979738 -129.9792146305 401.4022891264
346 1 2 0.0 113.0217918509 -129.8528694662 402.8856660553
347 1 2 0.0 113.9550850705 -130.7644640733 403.6552601876
348 1 2 0.0 113.6758971834 -130.638118909 405.1386371165
349 1 2 0.0 114.609190403 -131.5497135161 405.9082312489
350 1 2 0.0 114.3300025159 -131.4233683518 407.3916081777
351 1 2 0.0 115.2632957356 -132.3349629589 408.1612023101
352 1 2 0.0 114.9841078484 -132.2086177946 409.644579239
353 1 2 0.0 115.9174010681 -133.1202124016 410.4141733713
354 1 2 0.0 115.638213181 -132.9938672374 411.8975503002
355 1 2 0.0 116.5715064006 -133.9054618444 412.6671444326
356 1 2 0.0 116.2923185135 -133.7791166802 414.1505213614
357 1 2 0.0 117.2256117331 -134.6907112872 414.9201154938
358 1 2 0.0 116.946423846 -134.5643661229 416.4034924227
359 1 2 0.0 117.8797170657 -135.47596073 417.173086555
360 1 2 0.0 117.6005291785 -135.3496155657 418.6564634839
361 1 2 0.0 118.5338223982 -136.2612101728 419.4260576162
362 1 2 0.0 118.2546345111 -136.1348650085 420.9094345451
363 1 2 0.0 119.1879277307 -137.0464596156 421.6790286775
364 1 2 0.0 118.9087398436 -136.9201144513 423.1624056064
365 1 2 0.0 119.8420330632 -137.8317090584 423.9319997387
366 1 2 0.0 119.5628451761 -137.7053638941 425.4153766676
367 1 2 0.0 120.4961383958 -138.6169585011 426.1849707999
368 1 2 0.0 120.2169505087 -138.4906133369 427.6683477288
369 1 2 0.0 121.1502437283 -139.4022079439 428.4379418612
370 1 2 0.0 120.8710558412 -139.2758627796 429.9213187901
371 1 2 0.0 121.8043490608 -140.1874573867 430.6909129224
372 1 2 0.0 121.5251611737 -140.0611122224 432.1742898513
373 1 2 0.0 122.4584543934 -140.9727068295 432.9438839836
374 1 2 0.0 122.1792665062 -140.8463616652 434.4272609125
375 1 2 0.0 123.1125597259 -141.7579562723 435.1968550449
376 1 2 0.0 122.8333718388 -141.631611108 436.6802319738
377 1 2 0.0 123.7666650584 -142.5432057151 437.4498261061
378 1 2 0.0 123.4874771713 -142.4168605508 438.933203035
379 1 2 0.0 124.4207703909 -143.3284551578 439.7027971673
380 1 2 0.0 124.1415825038 -143.2021099936 441.1861740962
381 1 2 0.0 125.0748757235 -144.1137046006 441.9557682286
382 1 2 0.0 124.7956878363 -143.9873594364 443.4391451575
383 1 2 0.0 125.728981056 -144.8989540434 444.2087392898
384 1 2 0.0 125.4497931689 -144.7726088791 445.6921162187
385 1 2 0.0 126.3830863885 -145.6842034862 446.461710351
386 1 2 0.0 126.1038985014 -145.5578583219 447.9450872799
387 1 2 0.0 127.037191721 -146.469452929 448.7146814123
388 1 2 0.0 126.7580038339 -146.3431077647 450.1980583412
389 1 2 0.0 127.6912970536 -147.2547023718 450.9676524735
390 1 2 0.0 127.4121091664 -147.1283572075 452.4510294024
391 1 2 0.0 128.3454023861 -148.0399518146 453.2206235347
392 1 2 0.0 128.066214499 -147.9136066503 454.7040004636
393 1 2 0.0 128.9995077186 -148.8252012573 455.473594596
394 1 2 0.0 128.7203198315 -148.6988560931 456.9569715249
395 1 2 0.0 129.6536130511 -149.6104507001 457.7265656572
396 1 2 0.0 129.374425164 -149.4841055358 459.2099425861
397 1 2 0.0 130.3077183837 -150.3957001429 459.9795367184
398 1 2 0.0 130.0285304966 -150.2693549786 461.4629136473
399 1 2 0.0 130.9618237162 -151.1809495857 462.2325077797
400 1 2 0.0 130.6826358291 -151.0546044214 463.7158847086
401 1 2 0.0 131.6159290487 -151.9661990285 464.4854788409
402 1 2 0.0 131.3367411616 -151.8398538642 465.9688557698
403 1 2 0.0 132.2700343813 -152.7514484713 466.7384499021
404 1 2 0.0 131.9908464941 -152.625103307 468.221826831
405 1 2 0.0 132.9241397138 -153.5366979141 468.9914209634
406 1 2 0.0 132.6449518267 -153.4103527498 470.4747978922
407 1 2 0.0 133.5782450463 -154.3219473568 471.2443920246
408 1 2 0.0 133.2990571592 -154.1956021926 472.7277689535
409 1 2 0.0 134.2323503788 -155.1071967996 473.4973630858
410 1 2 0.0 133.9531624917 -154.9808516353 474.9807400147
411 1 2 0.0 134.8864557114 -155.8924462424 475.7503341471
412 1 2 0.0 134.6072678242 -155.7661010781 477.2337110759
413 1 2 0.0 135.5405610439 -156.6776956852 478.0033052083
414 1 2 0.0 135.2613731568 -156.5513505209 479.4866821372
415 1 2 0.0 136.1946663764 -157.462945128 480.2562762695
416 1 2 0.0 135.9154784893 -157.3365999637 481.7396531984
417 1 2 0.0 136.8487717089 -158.2481945708 482.5092473308
418 1 2 0.0 136.5695838218 -158.1218494065 483.9926242596
419 1 2 0.0 137.5028770415 -159.0334440135 484.762218392
420 1 2 0.0 137.2236891544 -158.9070988493 486.2455953209
421 1 2 0.0 138.156982374 -159.8186934563 487.0151894532
422 1 2 0.0 137.8777944869 -159.6923482921 488.4985663821
423 1 2 0.0 138.8110877065 -160.6039428991 489.2681605145
424 1 2 0.0 138.5318998194 -160.4775977348 490.7515374433
425 1 2 0.0 139.465193039 -161.3891923419 491.5211315757
426 1 2 0.0 139.1860051519 -161.2628471776 493.0045085046
427 1 2 0.0 140.1192983716 -162.1744417847 493.7741026369
428 1 2 0.0 139.8401104845 -162.0480966204 495.2574795658
429 1 2 0.0 140.7734037041 -162.9596912275 496.0270736982
430 1 2 0.0 140.494215817 -162.8333460632 497.510450627
431 1 2 0.0 141.4275090366 -163.7449406703 498.2800447594
432 1 2 0.0 141.1483211495 -163.618595506 499.7634216883
433 1 2 0.0 142.0816143692 -164.530190113 500.5330158206
434 1 2 0.0 141.802426482 -164.4038449488 502.0163927495
435 1 2 0.0 142.7357197017 -165.3154395558 502.7859868818
436 1 2 0.0 142.4565318146 -165.1890943915 504.2693638107
437 1 2 0.0 143.3898250342 -166.1006889986 505.0389579431
438 1 2 0.0 143.1106371471 -165.9743438343 506.522334872
439 1 2 0.0 144.0439303667 -166.8859384414 507.2919290043
440 1 2 0.0 143.7647424796 -166.7595932771 508.7753059332
441 1 2 0.0 144.6980356993 -167.6711878842 509.5449000655
442 1 2 0.0 144.4188478121 -167.5448427199 511.0282769944
443 1 2 0.0 145.3521410318 -168.456437327 511.7978711268
444 1 2 0.0 145.0729531447 -168.3300921627 513.2812480557
445 1 2 0.0 146.0062463643 -169.2416867697 514.050842188
446 1 2 0.0 145.7270584772 -169.1153416055 515.5342191169
447 1 2 0.0 146.6603516968 -170.0269362125 516.3038132492
448 1 2 0.0 146.3811638097 -169.9005910483 517.7871901781
449 1 2 0.0 147.3144570294 -170.8121856553 518.5567843105
450 1 2 0.0 147.0352691423 -170.685840491 520.0401612394
451 1 2 0.0 147.9685623619 -171.5974350981 520.8097553717
452 1 2 0.0 147.6893744748 -171.4710899338 522.2931323006
453 1 2 0.0 148.6226676944 -172.3826845409 523.0627264329
454 1 2 0.0 148.3434798073 -172.2563393766 524.5461033618
455 1 2 0.0 149.276773027 -173.1679339837 525.3156974942
456 1 2 0.0 148.9975851398 -173.0415888194 526.7990744231
457 1 2 0.0 149.9308783595 -173.9531834265 527.5686685554
458 1 2 0.0 149.6516904724 -173.8268382622 529.0520454843
459 1 2 0.0 150.584983692 -174.7384328692 529.8216396166
460 1 2 0.0 150.3057958049 -174.612087705 531.3050165455
461 1 2 0.0 151.2390890245 -175.523682312 532.0746106779
462 1 2 0.0 150.9599011374 -175.3973371477 533.5579876068
463 1 2 0.0 151.8931943571 -176.3089317548 534.3275817391
464 1 2 0.0 151.6140064699 -176.1825865905 535.810958668
465 1 2 0.0 152.5472996896 -177.0941811976 536.5805528003
466 1 2 0.0 152.2681118025 -176.9678360333 538.0639297292
467 1 2 0.0 153.2014050221 -177.8794306404 538.8335238616
468 1 2 0.0 152.922217135 -177.7530854761 540.3169007905
469 1 2 0.0 153.8555103546 -178.6646800832 541.0864949228
470 1 2 0.0 153.5763224675 -178.5383349189 542.5698718517
471 1 2 0.0 154.5096156872 -179.4499295259 543.339465984
472 1 2 0.0 154.2304278001 -179.3235843617 544.8228429129
473 1 2 0.0 155.1637210197 -180.2351789687 545.5924370453
474 1 2 0.0 154.8845331326 -180.1088338045 547.0758139742
475 1 2 0.0 155.8178263522 -181.0204284115 547.8454081065
476 1 2 0.0 155.5386384651 -180.8940832472 549.3287850354
477 1 2 0.0 156.4719316847 -181.8056778543 550.0983791677
478 1 2 0.0 156.1927437976 -181.67933269 551.5817560966
479 1 2 0.0 157.1260370173 -182.5909272971 552.351350229
480 1 2 0.0 156.8468491302 -182.4645821328 553.8347271579
481 1 2 0.0 157.7801423498 -183.3761767399 554.6043212902
482 1 2 0.0 157.5009544627 -183.2498315756 556.0876982191
483 1 2 0.0 158.4342476823 -184.1614261827 556.8572923514
484 1 2 0.0 158.1550597952 -184.0350810184 558.3406692803
485 1 2 0.0 159.0883530149 -184.9466756254 559.1102634127
486 1 2 0.0 158.8091651277 -184.8203304612 560.5936403415
487 1 2 0.0 159.7424583474 -185.7319250682 561.3632344739
488 1 2 0.0 159.4632704603 -185.6055799039 562.8466114028
489 1 2 0.0 160.3965636799 -186.517174511 563.6162055351
490 1 2 0.0 160.1173757928 -186.3908293467 565.099582464
491 1 2 0.0 161.0506690124 -187.3024239538 565.8691765964
492 1 2 0.0 160.7714811253 -187.1760787895 567.3525535252
493 1 2 0.0 161.704774345 -188.0876733966 568.1221476576
494 1 2 0.0 161.4255864578 -187.9613282323 569.6055245865
495 1 2 0.0 162.3588796775 -188.8729228394 570.3751187188
496 1 2 0.0 162.0796917904 -188.7465776751 571.8584956477
497 1 2 0.0 163.01298501 -189.6581722822 572.6280897801
498 1 2 0.0 162.7337971229 -189.5318271179 574.1114667089
499 1 2 0.0 163.6670903425 -190.4434217249 574.8810608413
500 1 2 0.0 163.3879024554 -190.3170765607 576.3644377702
501 1 2 0.0 164.3211956751 -191.2286711677 577.1340319025
502 1 2 0.0 164.042007788 -191.1023260034 578.6174088314
503 1 2 0.0 164.9753010076 -192.0139206105 579.3870029638
504 1 2 0.0 164.6961131205 -191.8875754462 580.8703798926
505 1 2 0.0 165.6294063401 -192.7991700533 581.639974025
506 1 2 0.0 165.350218453 -192.672824889 583.1233509539
507 1 2 0.0 166.2835116727 -193.5844194961 583.8929450862
508 1 2 0.0 166.0043237855 -193.4580743318 585.3763220151
509 1 2 0.0 166.9376170052 -194.3696689389 586.1459161475
510 1 2 0.0 166.6584291181 -194.2433237746 587.6292930763
511 1 2 0.0 167.5917223377 -195.1549183816 588.3988872087
512 1 2 0.0 167.3125344506 -195.0285732174 589.8822641376
513 1 2 0.0 168.2458276702 -195.9401678244 590.6518582699
514 1 2 0.0 167.9666397831 -195.8138226602 592.1352351988
515 1 2 0.0 168.8999330028 -196.7254172672 592.9048293312
516 1 2 0.0 168.6207451156 -196.5990721029 594.38820626
517 1 2 0.0 169.5540383353 -197.51066671 595.1578003924
518 1 2 0.0 169.2748504482 -197.3843215457 596.6411773213
519 1 2 0.0 170.2081436678 -198.2959161528 597.4107714536
520 1 2 0.0 169.9289557807 -198.1695709885 598.8941483825