# LAMMPS data file written by OVITO Basic 3.5.2
72 atoms
3 atom types
0.0 8.6336994 xlo xhi
0.0 9.9694004 ylo yhi
0.0 26.5988999 zlo zhi

Masses

1 196.9665  # Au
2 14.0107  # C
3 32.065  # S

Atoms  # full

4009	1	1	0	0	0	0
4010	1	1	0	0	3.3231349	4.6996022
4011	1	1	0	0	1.6615651	2.3497977
4012	1	1	0	1.43895	4.1539149	2.3497977
4013	1	1	0	1.43895	0.830785	4.6996022
4014	1	1	0	1.43895	2.4923501	0
4015	1	1	0	0	0	7.0493999
4016	1	1	0	0	3.3231349	11.7490025
4017	1	1	0	0	1.6615651	9.3991976
4018	1	1	0	1.43895	4.1539149	9.3991976
4019	1	1	0	1.43895	0.830785	11.7490025
4020	1	1	0	1.43895	2.4923501	7.0493999
4021	1	1	0	0	4.9847002	0
4022	1	1	0	0	8.3078346	4.6996022
4023	1	1	0	0	6.6462651	2.3497977
4024	1	1	0	1.43895	9.1386147	2.3497977
4025	1	1	0	1.43895	5.815485	4.6996022
4026	1	1	0	1.43895	7.4770503	0
4027	1	1	0	0	4.9847002	7.0493999
4028	1	1	0	0	8.3078346	11.7490025
4029	1	1	0	0	6.6462651	9.3991976
4030	1	1	0	1.43895	9.1386147	9.3991976
4031	1	1	0	1.43895	5.815485	11.7490025
4032	1	1	0	1.43895	7.4770503	7.0493999
4033	1	1	0	2.8779	0	0
4034	1	1	0	2.8779	3.3231349	4.6996022
4035	1	1	0	2.8779	1.6615651	2.3497977
4036	1	1	0	4.3168497	4.1539149	2.3497977
4037	1	1	0	4.3168497	0.830785	4.6996022
4038	1	1	0	4.3168497	2.4923501	0
4039	1	1	0	2.8779	0	7.0493999
4040	1	1	0	2.8779	3.3231349	11.7490025
4041	1	1	0	2.8779	1.6615651	9.3991976
4042	1	1	0	4.3168497	4.1539149	9.3991976
4043	1	1	0	4.3168497	0.830785	11.7490025
4044	1	1	0	4.3168497	2.4923501	7.0493999
4045	1	1	0	2.8779	4.9847002	0
4046	1	1	0	2.8779	8.3078346	4.6996022
4047	1	1	0	2.8779	6.6462651	2.3497977
4048	1	1	0	4.3168497	9.1386147	2.3497977
4049	1	1	0	4.3168497	5.815485	4.6996022
4050	1	1	0	4.3168497	7.4770503	0
4051	1	1	0	2.8779	4.9847002	7.0493999
4052	1	1	0	2.8779	8.3078346	11.7490025
4053	1	1	0	2.8779	6.6462651	9.3991976
4054	1	1	0	4.3168497	9.1386147	9.3991976
4055	1	1	0	4.3168497	5.815485	11.7490025
4056	1	1	0	4.3168497	7.4770503	7.0493999
4057	1	1	0	5.7557998	0	0
4058	1	1	0	5.7557998	3.3231349	4.6996022
4059	1	1	0	5.7557998	1.6615651	2.3497977
4060	1	1	0	7.1947498	4.1539149	2.3497977
4061	1	1	0	7.1947498	0.830785	4.6996022
4062	1	1	0	7.1947498	2.4923501	0
4063	1	1	0	5.7557998	0	7.0493999
4064	1	1	0	5.7557998	3.3231349	11.7490025
4065	1	1	0	5.7557998	1.6615651	9.3991976
4066	1	1	0	7.1947498	4.1539149	9.3991976
4067	1	1	0	7.1947498	0.830785	11.7490025
4068	1	1	0	7.1947498	2.4923501	7.0493999
4069	1	1	0	5.7557998	4.9847002	0
4070	1	1	0	5.7557998	8.3078346	4.6996022
4071	1	1	0	5.7557998	6.6462651	2.3497977
4072	1	1	0	7.1947498	9.1386147	2.3497977
4073	1	1	0	7.1947498	5.815485	4.6996022
4074	1	1	0	7.1947498	7.4770503	0
4075	1	1	0	5.7557998	4.9847002	7.0493999
4076	1	1	0	5.7557998	8.3078346	11.7490025
4077	1	1	0	5.7557998	6.6462651	9.3991976
4078	1	1	0	7.1947498	9.1386147	9.3991976
4079	1	1	0	7.1947498	5.815485	11.7490025
4080	1	1	0	7.1947498	7.4770503	7.0493999
