# LAMMPS chain structure written by python
10	atoms
9	bonds
8	angles
7	dihedrals

3	atom types
2	bond types
2	angle types
2	dihedral types
-2.0 2.0 xlo xhi
-2.0 2.8742018193493974 ylo yhi
-2.0 13.631344006012277 zlo zhi

Masses

1 196.9665  # Au
2 14.0107  # C
3 32.065  # S

Atoms # full

1	1	3	0.0	0.0	0.0	0.0
2	1	2	0.0	0.0	0.8742018193493976	1.4862876303942558
3	1	2	0.0	0.0	0.0	2.723254593997651
4	1	2	0.0	0.0	0.8742018193493976	3.960221557601046
5	1	2	0.0	0.0	0.0	5.197188521204441
6	1	2	0.0	0.0	0.8742018193493976	6.434155484807836
7	1	2	0.0	0.0	0.0	7.671122448411231
8	1	2	0.0	0.0	0.8742018193493976	8.908089412014625
9	1	2	0.0	0.0	0.0	10.14505637561802
10	1	3	0.0	0.0	0.8742018193493976	11.631344006012277

Bonds

1	2	1	2
2	1	2	3
3	1	3	4
4	1	4	5
5	1	5	6
6	1	6	7
7	1	7	8
8	1	8	9
9	2	9	10

Angles

1	2	1	2	3
2	1	2	3	4
3	1	3	4	5
4	1	4	5	6
5	1	5	6	7
6	1	6	7	8
7	1	7	8	9
8	2	8	9	10

Dihedrals

1	2	1	2	3	4
2	1	2	3	4	5
3	1	3	4	5	6
4	1	4	5	6	7
5	1	5	6	7	8
6	1	6	7	8	9
7	2	7	8	9	10
