# LAMMPS data file written by OVITO Basic 3.5.2
40 atoms
36 bonds
32 angles
28 dihedrals
3 atom types
2 bond types
2 angle types
2 dihedral types
0.0 8.0 xlo xhi
0.2 9.9484036387 ylo yhi
11.8 27.431344006 zlo zhi

Masses

1 196.9665  # Au
2 14.0107  # C
3 32.065  # S

Atoms  # full

1 1 3 0.0 0.728942441 5.1628262073 13.6642143514
2 1 2 0.0 0.5156746562 5.2100346928 15.3746435233
3 1 2 0.0 1.4489678759 4.2984400857 16.1442376556
4 1 2 0.0 1.1697799888 4.42478525 17.6276145845
5 1 2 0.0 2.1030732084 3.5131906429 18.3972087169
6 1 2 0.0 1.8238853213 3.6395358072 19.8805856458
7 1 2 0.0 2.7571785409 2.7279412001 20.6501797781
8 1 2 0.0 2.4779906538 2.8542863644 22.133556707
9 1 2 0.0 3.4112838735 1.9426917573 22.9031508393
10 1 3 0.0 3.1980160887 1.9899002428 24.6135800112
11 2 3 0.0 0.5487409274 9.7575678451 13.5889482912
12 2 2 0.0 0.3354731426 9.8047763305 15.2993774631
13 2 2 0.0 1.2687663623 8.8931817235 16.0689715954
14 2 2 0.0 0.9895784751 9.0195268877 17.5523485243
15 2 2 0.0 1.9228716948 8.1079322807 18.3219426567
16 2 2 0.0 1.6436838077 8.234277445 19.8053195855
17 2 2 0.0 2.5769770273 7.3226828379 20.5749137179
18 2 2 0.0 2.2977891402 7.4490280022 22.0582906468
19 2 2 0.0 3.2310823598 6.5374333951 22.8278847791
20 2 3 0.0 3.0178145751 6.5846418805 24.538313951
21 3 3 0.0 4.3860345985 2.7752966287 13.688146608
22 3 2 0.0 4.1727668138 2.8225051141 15.3985757799
23 3 2 0.0 5.1060600334 1.9109105071 16.1681699122
24 3 2 0.0 4.8268721463 2.0372556713 17.6515468411
25 3 2 0.0 5.7601653659 1.1256610643 18.4211409734
26 3 2 0.0 5.4809774788 1.2520062286 19.9045179023
27 3 2 0.0 6.4142706985 0.3404116215 20.6741120347
28 3 2 0.0 6.1350828114 0.4667567858 22.1574889636
29 3 2 0.0 7.068376031 -0.4448378213 22.9270830959
30 3 3 0.0 6.8551082462 -0.3976293358 24.6375122678
31 4 3 0.0 4.5058330849 7.5700382665 13.5128805478
32 4 2 0.0 4.2925653002 7.6172467519 15.2233097197
33 4 2 0.0 5.2258585198 6.7056521448 15.992903852
34 4 2 0.0 4.9466706327 6.8319973091 17.4762807809
35 4 2 0.0 5.8799638523 5.9204027021 18.2458749132
36 4 2 0.0 5.6007759652 6.0467478663 19.7292518421
37 4 2 0.0 6.5340691849 5.1351532593 20.4988459745
38 4 2 0.0 6.2548812977 5.2614984236 21.9822229034
39 4 2 0.0 7.1881745174 4.3499038165 22.7518170357
40 4 3 0.0 6.9749067326 4.3971123019 24.4622462076

Bonds

1 2 1 2
2 1 2 3
3 1 3 4
4 1 4 5
5 1 5 6
6 1 6 7
7 1 7 8
8 1 8 9
9 2 9 10
10 2 11 12
11 1 12 13
12 1 13 14
13 1 14 15
14 1 15 16
15 1 16 17
16 1 17 18
17 1 18 19
18 2 19 20
19 2 21 22
20 1 22 23
21 1 23 24
22 1 24 25
23 1 25 26
24 1 26 27
25 1 27 28
26 1 28 29
27 2 29 30
28 2 31 32
29 1 32 33
30 1 33 34
31 1 34 35
32 1 35 36
33 1 36 37
34 1 37 38
35 1 38 39
36 2 39 40

Angles

1 2 1 2 3
2 1 2 3 4
3 1 3 4 5
4 1 4 5 6
5 1 5 6 7
6 1 6 7 8
7 1 7 8 9
8 2 8 9 10
9 2 11 12 13
10 1 12 13 14
11 1 13 14 15
12 1 14 15 16
13 1 15 16 17
14 1 16 17 18
15 1 17 18 19
16 2 18 19 20
17 2 21 22 23
18 1 22 23 24
19 1 23 24 25
20 1 24 25 26
21 1 25 26 27
22 1 26 27 28
23 1 27 28 29
24 2 28 29 30
25 2 31 32 33
26 1 32 33 34
27 1 33 34 35
28 1 34 35 36
29 1 35 36 37
30 1 36 37 38
31 1 37 38 39
32 2 38 39 40

Dihedrals

1 2 1 2 3 4
2 1 2 3 4 5
3 1 3 4 5 6
4 1 4 5 6 7
5 1 5 6 7 8
6 1 6 7 8 9
7 2 7 8 9 10
8 2 11 12 13 14
9 1 12 13 14 15
10 1 13 14 15 16
11 1 14 15 16 17
12 1 15 16 17 18
13 1 16 17 18 19
14 2 17 18 19 20
15 2 21 22 23 24
16 1 22 23 24 25
17 1 23 24 25 26
18 1 24 25 26 27
19 1 25 26 27 28
20 1 26 27 28 29
21 2 27 28 29 30
22 2 31 32 33 34
23 1 32 33 34 35
24 1 33 34 35 36
25 1 34 35 36 37
26 1 35 36 37 38
27 1 36 37 38 39
28 2 37 38 39 40
