# LAMMPS chain structure written by python
52	atoms
51	bonds
50	angles
49	dihedrals

3	atom types
2	bond types
2	angle types
2	dihedral types
-2.0 2.0 xlo xhi
-2.0 2.8742018193493974 ylo yhi
-2.0 65.5839564773548 zlo zhi

Masses

1 196.9665  # Au
2 14.0107  # C
3 32.065  # S

Atoms # full

1	1	3	0.0	0.0	0.0	0.0
2	1	2	0.0	0.0	0.8742018193493976	1.4862876303942558
3	1	2	0.0	0.0	0.0	2.723254593997651
4	1	2	0.0	0.0	0.8742018193493976	3.960221557601046
5	1	2	0.0	0.0	0.0	5.197188521204441
6	1	2	0.0	0.0	0.8742018193493976	6.434155484807836
7	1	2	0.0	0.0	0.0	7.671122448411231
8	1	2	0.0	0.0	0.8742018193493976	8.908089412014625
9	1	2	0.0	0.0	0.0	10.14505637561802
10	1	2	0.0	0.0	0.8742018193493976	11.382023339221416
11	1	2	0.0	0.0	0.0	12.61899030282481
12	1	2	0.0	0.0	0.8742018193493976	13.855957266428206
13	1	2	0.0	0.0	0.0	15.0929242300316
14	1	2	0.0	0.0	0.8742018193493976	16.329891193634996
15	1	2	0.0	0.0	0.0	17.566858157238393
16	1	2	0.0	0.0	0.8742018193493976	18.803825120841786
17	1	2	0.0	0.0	0.0	20.04079208444518
18	1	2	0.0	0.0	0.8742018193493976	21.277759048048573
19	1	2	0.0	0.0	0.0	22.514726011651966
20	1	2	0.0	0.0	0.8742018193493976	23.75169297525536
21	1	2	0.0	0.0	0.0	24.988659938858753
22	1	2	0.0	0.0	0.8742018193493976	26.225626902462146
23	1	2	0.0	0.0	0.0	27.46259386606554
24	1	2	0.0	0.0	0.8742018193493976	28.699560829668933
25	1	2	0.0	0.0	0.0	29.936527793272326
26	1	2	0.0	0.0	0.8742018193493976	31.17349475687572
27	1	2	0.0	0.0	0.0	32.41046172047911
28	1	2	0.0	0.0	0.8742018193493976	33.647428684082506
29	1	2	0.0	0.0	0.0	34.8843956476859
30	1	2	0.0	0.0	0.8742018193493976	36.12136261128929
31	1	2	0.0	0.0	0.0	37.358329574892686
32	1	2	0.0	0.0	0.8742018193493976	38.59529653849608
33	1	2	0.0	0.0	0.0	39.83226350209947
34	1	2	0.0	0.0	0.8742018193493976	41.069230465702866
35	1	2	0.0	0.0	0.0	42.30619742930626
36	1	2	0.0	0.0	0.8742018193493976	43.54316439290965
37	1	2	0.0	0.0	0.0	44.780131356513046
38	1	2	0.0	0.0	0.8742018193493976	46.01709832011644
39	1	2	0.0	0.0	0.0	47.25406528371983
40	1	2	0.0	0.0	0.8742018193493976	48.491032247323226
41	1	2	0.0	0.0	0.0	49.72799921092662
42	1	2	0.0	0.0	0.8742018193493976	50.96496617453001
43	1	2	0.0	0.0	0.0	52.201933138133406
44	1	2	0.0	0.0	0.8742018193493976	53.4389001017368
45	1	2	0.0	0.0	0.0	54.67586706534019
46	1	2	0.0	0.0	0.8742018193493976	55.912834028943585
47	1	2	0.0	0.0	0.0	57.14980099254698
48	1	2	0.0	0.0	0.8742018193493976	58.38676795615037
49	1	2	0.0	0.0	0.0	59.623734919753765
50	1	2	0.0	0.0	0.8742018193493976	60.86070188335716
51	1	2	0.0	0.0	0.0	62.09766884696055
52	1	3	0.0	0.0	0.8742018193493976	63.58395647735481

Bonds

1	2	1	2
2	1	2	3
3	1	3	4
4	1	4	5
5	1	5	6
6	1	6	7
7	1	7	8
8	1	8	9
9	1	9	10
10	1	10	11
11	1	11	12
12	1	12	13
13	1	13	14
14	1	14	15
15	1	15	16
16	1	16	17
17	1	17	18
18	1	18	19
19	1	19	20
20	1	20	21
21	1	21	22
22	1	22	23
23	1	23	24
24	1	24	25
25	1	25	26
26	1	26	27
27	1	27	28
28	1	28	29
29	1	29	30
30	1	30	31
31	1	31	32
32	1	32	33
33	1	33	34
34	1	34	35
35	1	35	36
36	1	36	37
37	1	37	38
38	1	38	39
39	1	39	40
40	1	40	41
41	1	41	42
42	1	42	43
43	1	43	44
44	1	44	45
45	1	45	46
46	1	46	47
47	1	47	48
48	1	48	49
49	1	49	50
50	1	50	51
51	2	51	52

Angles

1	2	1	2	3
2	1	2	3	4
3	1	3	4	5
4	1	4	5	6
5	1	5	6	7
6	1	6	7	8
7	1	7	8	9
8	1	8	9	10
9	1	9	10	11
10	1	10	11	12
11	1	11	12	13
12	1	12	13	14
13	1	13	14	15
14	1	14	15	16
15	1	15	16	17
16	1	16	17	18
17	1	17	18	19
18	1	18	19	20
19	1	19	20	21
20	1	20	21	22
21	1	21	22	23
22	1	22	23	24
23	1	23	24	25
24	1	24	25	26
25	1	25	26	27
26	1	26	27	28
27	1	27	28	29
28	1	28	29	30
29	1	29	30	31
30	1	30	31	32
31	1	31	32	33
32	1	32	33	34
33	1	33	34	35
34	1	34	35	36
35	1	35	36	37
36	1	36	37	38
37	1	37	38	39
38	1	38	39	40
39	1	39	40	41
40	1	40	41	42
41	1	41	42	43
42	1	42	43	44
43	1	43	44	45
44	1	44	45	46
45	1	45	46	47
46	1	46	47	48
47	1	47	48	49
48	1	48	49	50
49	1	49	50	51
50	2	50	51	52

Dihedrals

1	2	1	2	3	4
2	1	2	3	4	5
3	1	3	4	5	6
4	1	4	5	6	7
5	1	5	6	7	8
6	1	6	7	8	9
7	1	7	8	9	10
8	1	8	9	10	11
9	1	9	10	11	12
10	1	10	11	12	13
11	1	11	12	13	14
12	1	12	13	14	15
13	1	13	14	15	16
14	1	14	15	16	17
15	1	15	16	17	18
16	1	16	17	18	19
17	1	17	18	19	20
18	1	18	19	20	21
19	1	19	20	21	22
20	1	20	21	22	23
21	1	21	22	23	24
22	1	22	23	24	25
23	1	23	24	25	26
24	1	24	25	26	27
25	1	25	26	27	28
26	1	26	27	28	29
27	1	27	28	29	30
28	1	28	29	30	31
29	1	29	30	31	32
30	1	30	31	32	33
31	1	31	32	33	34
32	1	32	33	34	35
33	1	33	34	35	36
34	1	34	35	36	37
35	1	35	36	37	38
36	1	36	37	38	39
37	1	37	38	39	40
38	1	38	39	40	41
39	1	39	40	41	42
40	1	40	41	42	43
41	1	41	42	43	44
42	1	42	43	44	45
43	1	43	44	45	46
44	1	44	45	46	47
45	1	45	46	47	48
46	1	46	47	48	49
47	1	47	48	49	50
48	1	48	49	50	51
49	2	49	50	51	52
