# LAMMPS chain structure written by python
102	atoms
101	bonds
100	angles
99	dihedrals

3	atom types
2	bond types
2	angle types
2	dihedral types
-2.0 2.0 xlo xhi
-2.0 2.8742018193493974 ylo yhi
-2.0 127.43230465752448 zlo zhi

Masses

1 196.9665  # Au
2 14.0107  # C
3 32.065  # S

Atoms # full

1	1	3	0.0	0.0	0.0	0.0
2	1	2	0.0	0.0	0.8742018193493976	1.4862876303942558
3	1	2	0.0	0.0	0.0	2.723254593997651
4	1	2	0.0	0.0	0.8742018193493976	3.960221557601046
5	1	2	0.0	0.0	0.0	5.197188521204441
6	1	2	0.0	0.0	0.8742018193493976	6.434155484807836
7	1	2	0.0	0.0	0.0	7.671122448411231
8	1	2	0.0	0.0	0.8742018193493976	8.908089412014625
9	1	2	0.0	0.0	0.0	10.14505637561802
10	1	2	0.0	0.0	0.8742018193493976	11.382023339221416
11	1	2	0.0	0.0	0.0	12.61899030282481
12	1	2	0.0	0.0	0.8742018193493976	13.855957266428206
13	1	2	0.0	0.0	0.0	15.0929242300316
14	1	2	0.0	0.0	0.8742018193493976	16.329891193634996
15	1	2	0.0	0.0	0.0	17.566858157238393
16	1	2	0.0	0.0	0.8742018193493976	18.803825120841786
17	1	2	0.0	0.0	0.0	20.04079208444518
18	1	2	0.0	0.0	0.8742018193493976	21.277759048048573
19	1	2	0.0	0.0	0.0	22.514726011651966
20	1	2	0.0	0.0	0.8742018193493976	23.75169297525536
21	1	2	0.0	0.0	0.0	24.988659938858753
22	1	2	0.0	0.0	0.8742018193493976	26.225626902462146
23	1	2	0.0	0.0	0.0	27.46259386606554
24	1	2	0.0	0.0	0.8742018193493976	28.699560829668933
25	1	2	0.0	0.0	0.0	29.936527793272326
26	1	2	0.0	0.0	0.8742018193493976	31.17349475687572
27	1	2	0.0	0.0	0.0	32.41046172047911
28	1	2	0.0	0.0	0.8742018193493976	33.647428684082506
29	1	2	0.0	0.0	0.0	34.8843956476859
30	1	2	0.0	0.0	0.8742018193493976	36.12136261128929
31	1	2	0.0	0.0	0.0	37.358329574892686
32	1	2	0.0	0.0	0.8742018193493976	38.59529653849608
33	1	2	0.0	0.0	0.0	39.83226350209947
34	1	2	0.0	0.0	0.8742018193493976	41.069230465702866
35	1	2	0.0	0.0	0.0	42.30619742930626
36	1	2	0.0	0.0	0.8742018193493976	43.54316439290965
37	1	2	0.0	0.0	0.0	44.780131356513046
38	1	2	0.0	0.0	0.8742018193493976	46.01709832011644
39	1	2	0.0	0.0	0.0	47.25406528371983
40	1	2	0.0	0.0	0.8742018193493976	48.491032247323226
41	1	2	0.0	0.0	0.0	49.72799921092662
42	1	2	0.0	0.0	0.8742018193493976	50.96496617453001
43	1	2	0.0	0.0	0.0	52.201933138133406
44	1	2	0.0	0.0	0.8742018193493976	53.4389001017368
45	1	2	0.0	0.0	0.0	54.67586706534019
46	1	2	0.0	0.0	0.8742018193493976	55.912834028943585
47	1	2	0.0	0.0	0.0	57.14980099254698
48	1	2	0.0	0.0	0.8742018193493976	58.38676795615037
49	1	2	0.0	0.0	0.0	59.623734919753765
50	1	2	0.0	0.0	0.8742018193493976	60.86070188335716
51	1	2	0.0	0.0	0.0	62.09766884696055
52	1	2	0.0	0.0	0.8742018193493976	63.334635810563945
53	1	2	0.0	0.0	0.0	64.57160277416735
54	1	2	0.0	0.0	0.8742018193493976	65.80856973777074
55	1	2	0.0	0.0	0.0	67.04553670137413
56	1	2	0.0	0.0	0.8742018193493976	68.28250366497753
57	1	2	0.0	0.0	0.0	69.51947062858092
58	1	2	0.0	0.0	0.8742018193493976	70.75643759218431
59	1	2	0.0	0.0	0.0	71.9934045557877
60	1	2	0.0	0.0	0.8742018193493976	73.2303715193911
61	1	2	0.0	0.0	0.0	74.46733848299449
62	1	2	0.0	0.0	0.8742018193493976	75.70430544659789
63	1	2	0.0	0.0	0.0	76.94127241020128
64	1	2	0.0	0.0	0.8742018193493976	78.17823937380467
65	1	2	0.0	0.0	0.0	79.41520633740807
66	1	2	0.0	0.0	0.8742018193493976	80.65217330101146
67	1	2	0.0	0.0	0.0	81.88914026461485
68	1	2	0.0	0.0	0.8742018193493976	83.12610722821825
69	1	2	0.0	0.0	0.0	84.36307419182164
70	1	2	0.0	0.0	0.8742018193493976	85.60004115542503
71	1	2	0.0	0.0	0.0	86.83700811902843
72	1	2	0.0	0.0	0.8742018193493976	88.07397508263182
73	1	2	0.0	0.0	0.0	89.31094204623521
74	1	2	0.0	0.0	0.8742018193493976	90.5479090098386
75	1	2	0.0	0.0	0.0	91.784875973442
76	1	2	0.0	0.0	0.8742018193493976	93.02184293704539
77	1	2	0.0	0.0	0.0	94.25880990064879
78	1	2	0.0	0.0	0.8742018193493976	95.49577686425218
79	1	2	0.0	0.0	0.0	96.73274382785557
80	1	2	0.0	0.0	0.8742018193493976	97.96971079145897
81	1	2	0.0	0.0	0.0	99.20667775506236
82	1	2	0.0	0.0	0.8742018193493976	100.44364471866575
83	1	2	0.0	0.0	0.0	101.68061168226915
84	1	2	0.0	0.0	0.8742018193493976	102.91757864587254
85	1	2	0.0	0.0	0.0	104.15454560947593
86	1	2	0.0	0.0	0.8742018193493976	105.39151257307932
87	1	2	0.0	0.0	0.0	106.62847953668272
88	1	2	0.0	0.0	0.8742018193493976	107.86544650028611
89	1	2	0.0	0.0	0.0	109.1024134638895
90	1	2	0.0	0.0	0.8742018193493976	110.3393804274929
91	1	2	0.0	0.0	0.0	111.57634739109629
92	1	2	0.0	0.0	0.8742018193493976	112.81331435469968
93	1	2	0.0	0.0	0.0	114.05028131830308
94	1	2	0.0	0.0	0.8742018193493976	115.28724828190647
95	1	2	0.0	0.0	0.0	116.52421524550986
96	1	2	0.0	0.0	0.8742018193493976	117.76118220911326
97	1	2	0.0	0.0	0.0	118.99814917271665
98	1	2	0.0	0.0	0.8742018193493976	120.23511613632004
99	1	2	0.0	0.0	0.0	121.47208309992344
100	1	2	0.0	0.0	0.8742018193493976	122.70905006352683
101	1	2	0.0	0.0	0.0	123.94601702713022
102	1	3	0.0	0.0	0.8742018193493976	125.43230465752448

Bonds

1	2	1	2
2	1	2	3
3	1	3	4
4	1	4	5
5	1	5	6
6	1	6	7
7	1	7	8
8	1	8	9
9	1	9	10
10	1	10	11
11	1	11	12
12	1	12	13
13	1	13	14
14	1	14	15
15	1	15	16
16	1	16	17
17	1	17	18
18	1	18	19
19	1	19	20
20	1	20	21
21	1	21	22
22	1	22	23
23	1	23	24
24	1	24	25
25	1	25	26
26	1	26	27
27	1	27	28
28	1	28	29
29	1	29	30
30	1	30	31
31	1	31	32
32	1	32	33
33	1	33	34
34	1	34	35
35	1	35	36
36	1	36	37
37	1	37	38
38	1	38	39
39	1	39	40
40	1	40	41
41	1	41	42
42	1	42	43
43	1	43	44
44	1	44	45
45	1	45	46
46	1	46	47
47	1	47	48
48	1	48	49
49	1	49	50
50	1	50	51
51	1	51	52
52	1	52	53
53	1	53	54
54	1	54	55
55	1	55	56
56	1	56	57
57	1	57	58
58	1	58	59
59	1	59	60
60	1	60	61
61	1	61	62
62	1	62	63
63	1	63	64
64	1	64	65
65	1	65	66
66	1	66	67
67	1	67	68
68	1	68	69
69	1	69	70
70	1	70	71
71	1	71	72
72	1	72	73
73	1	73	74
74	1	74	75
75	1	75	76
76	1	76	77
77	1	77	78
78	1	78	79
79	1	79	80
80	1	80	81
81	1	81	82
82	1	82	83
83	1	83	84
84	1	84	85
85	1	85	86
86	1	86	87
87	1	87	88
88	1	88	89
89	1	89	90
90	1	90	91
91	1	91	92
92	1	92	93
93	1	93	94
94	1	94	95
95	1	95	96
96	1	96	97
97	1	97	98
98	1	98	99
99	1	99	100
100	1	100	101
101	2	101	102

Angles

1	2	1	2	3
2	1	2	3	4
3	1	3	4	5
4	1	4	5	6
5	1	5	6	7
6	1	6	7	8
7	1	7	8	9
8	1	8	9	10
9	1	9	10	11
10	1	10	11	12
11	1	11	12	13
12	1	12	13	14
13	1	13	14	15
14	1	14	15	16
15	1	15	16	17
16	1	16	17	18
17	1	17	18	19
18	1	18	19	20
19	1	19	20	21
20	1	20	21	22
21	1	21	22	23
22	1	22	23	24
23	1	23	24	25
24	1	24	25	26
25	1	25	26	27
26	1	26	27	28
27	1	27	28	29
28	1	28	29	30
29	1	29	30	31
30	1	30	31	32
31	1	31	32	33
32	1	32	33	34
33	1	33	34	35
34	1	34	35	36
35	1	35	36	37
36	1	36	37	38
37	1	37	38	39
38	1	38	39	40
39	1	39	40	41
40	1	40	41	42
41	1	41	42	43
42	1	42	43	44
43	1	43	44	45
44	1	44	45	46
45	1	45	46	47
46	1	46	47	48
47	1	47	48	49
48	1	48	49	50
49	1	49	50	51
50	1	50	51	52
51	1	51	52	53
52	1	52	53	54
53	1	53	54	55
54	1	54	55	56
55	1	55	56	57
56	1	56	57	58
57	1	57	58	59
58	1	58	59	60
59	1	59	60	61
60	1	60	61	62
61	1	61	62	63
62	1	62	63	64
63	1	63	64	65
64	1	64	65	66
65	1	65	66	67
66	1	66	67	68
67	1	67	68	69
68	1	68	69	70
69	1	69	70	71
70	1	70	71	72
71	1	71	72	73
72	1	72	73	74
73	1	73	74	75
74	1	74	75	76
75	1	75	76	77
76	1	76	77	78
77	1	77	78	79
78	1	78	79	80
79	1	79	80	81
80	1	80	81	82
81	1	81	82	83
82	1	82	83	84
83	1	83	84	85
84	1	84	85	86
85	1	85	86	87
86	1	86	87	88
87	1	87	88	89
88	1	88	89	90
89	1	89	90	91
90	1	90	91	92
91	1	91	92	93
92	1	92	93	94
93	1	93	94	95
94	1	94	95	96
95	1	95	96	97
96	1	96	97	98
97	1	97	98	99
98	1	98	99	100
99	1	99	100	101
100	2	100	101	102

Dihedrals

1	2	1	2	3	4
2	1	2	3	4	5
3	1	3	4	5	6
4	1	4	5	6	7
5	1	5	6	7	8
6	1	6	7	8	9
7	1	7	8	9	10
8	1	8	9	10	11
9	1	9	10	11	12
10	1	10	11	12	13
11	1	11	12	13	14
12	1	12	13	14	15
13	1	13	14	15	16
14	1	14	15	16	17
15	1	15	16	17	18
16	1	16	17	18	19
17	1	17	18	19	20
18	1	18	19	20	21
19	1	19	20	21	22
20	1	20	21	22	23
21	1	21	22	23	24
22	1	22	23	24	25
23	1	23	24	25	26
24	1	24	25	26	27
25	1	25	26	27	28
26	1	26	27	28	29
27	1	27	28	29	30
28	1	28	29	30	31
29	1	29	30	31	32
30	1	30	31	32	33
31	1	31	32	33	34
32	1	32	33	34	35
33	1	33	34	35	36
34	1	34	35	36	37
35	1	35	36	37	38
36	1	36	37	38	39
37	1	37	38	39	40
38	1	38	39	40	41
39	1	39	40	41	42
40	1	40	41	42	43
41	1	41	42	43	44
42	1	42	43	44	45
43	1	43	44	45	46
44	1	44	45	46	47
45	1	45	46	47	48
46	1	46	47	48	49
47	1	47	48	49	50
48	1	48	49	50	51
49	1	49	50	51	52
50	1	50	51	52	53
51	1	51	52	53	54
52	1	52	53	54	55
53	1	53	54	55	56
54	1	54	55	56	57
55	1	55	56	57	58
56	1	56	57	58	59
57	1	57	58	59	60
58	1	58	59	60	61
59	1	59	60	61	62
60	1	60	61	62	63
61	1	61	62	63	64
62	1	62	63	64	65
63	1	63	64	65	66
64	1	64	65	66	67
65	1	65	66	67	68
66	1	66	67	68	69
67	1	67	68	69	70
68	1	68	69	70	71
69	1	69	70	71	72
70	1	70	71	72	73
71	1	71	72	73	74
72	1	72	73	74	75
73	1	73	74	75	76
74	1	74	75	76	77
75	1	75	76	77	78
76	1	76	77	78	79
77	1	77	78	79	80
78	1	78	79	80	81
79	1	79	80	81	82
80	1	80	81	82	83
81	1	81	82	83	84
82	1	82	83	84	85
83	1	83	84	85	86
84	1	84	85	86	87
85	1	85	86	87	88
86	1	86	87	88	89
87	1	87	88	89	90
88	1	88	89	90	91
89	1	89	90	91	92
90	1	90	91	92	93
91	1	91	92	93	94
92	1	92	93	94	95
93	1	93	94	95	96
94	1	94	95	96	97
95	1	95	96	97	98
96	1	96	97	98	99
97	1	97	98	99	100
98	1	98	99	100	101
99	2	99	100	101	102
