# LAMMPS chain structure written by python
6	atoms
5	bonds
4	angles
3	dihedrals

3	atom types
2	bond types
2	angle types
2	dihedral types
-2.0 2.0 xlo xhi
-2.0 2.8742018193493974 ylo yhi
-2.0 8.683476151598697 zlo zhi

Masses

1 196.9665  # Au
2 14.0107  # C
3 32.065  # S

Atoms # full

1	1	3	0.0	0.0	0.0	0.0
2	1	2	0.0	0.0	0.8742018193493976	1.4862876303942558
3	1	2	0.0	0.0	0.0	2.723254593997651
4	1	2	0.0	0.0	0.8742018193493976	3.960221557601046
5	1	2	0.0	0.0	0.0	5.197188521204441
6	1	3	0.0	0.0	0.8742018193493976	6.683476151598697

Bonds

1	2	1	2
2	1	2	3
3	1	3	4
4	1	4	5
5	2	5	6

Angles

1	2	1	2	3
2	1	2	3	4
3	1	3	4	5
4	2	4	5	6

Dihedrals

1	2	1	2	3	4
2	1	2	3	4	5
3	2	3	4	5	6
