# LAMMPS chain structure written by python
3002	atoms
3001	bonds
3000	angles
2999	dihedrals

3	atom types
2	bond types
2	angle types
2	dihedral types
-2.0 2.0 xlo xhi
-2.0 2.8742018193493974 ylo yhi
-2.0 3714.636499107168 zlo zhi

Masses

1 196.9665  # Au
2 14.0107  # C
3 32.065  # S

Atoms # full

1	1	3	0.0	0.0	0.0	0.0
2	1	2	0.0	0.0	0.8742018193493976	1.4862876303942558
3	1	2	0.0	0.0	0.0	2.723254593997651
4	1	2	0.0	0.0	0.8742018193493976	3.960221557601046
5	1	2	0.0	0.0	0.0	5.197188521204441
6	1	2	0.0	0.0	0.8742018193493976	6.434155484807836
7	1	2	0.0	0.0	0.0	7.671122448411231
8	1	2	0.0	0.0	0.8742018193493976	8.908089412014625
9	1	2	0.0	0.0	0.0	10.14505637561802
10	1	2	0.0	0.0	0.8742018193493976	11.382023339221416
11	1	2	0.0	0.0	0.0	12.61899030282481
12	1	2	0.0	0.0	0.8742018193493976	13.855957266428206
13	1	2	0.0	0.0	0.0	15.0929242300316
14	1	2	0.0	0.0	0.8742018193493976	16.329891193634996
15	1	2	0.0	0.0	0.0	17.566858157238393
16	1	2	0.0	0.0	0.8742018193493976	18.803825120841786
17	1	2	0.0	0.0	0.0	20.04079208444518
18	1	2	0.0	0.0	0.8742018193493976	21.277759048048573
19	1	2	0.0	0.0	0.0	22.514726011651966
20	1	2	0.0	0.0	0.8742018193493976	23.75169297525536
21	1	2	0.0	0.0	0.0	24.988659938858753
22	1	2	0.0	0.0	0.8742018193493976	26.225626902462146
23	1	2	0.0	0.0	0.0	27.46259386606554
24	1	2	0.0	0.0	0.8742018193493976	28.699560829668933
25	1	2	0.0	0.0	0.0	29.936527793272326
26	1	2	0.0	0.0	0.8742018193493976	31.17349475687572
27	1	2	0.0	0.0	0.0	32.41046172047911
28	1	2	0.0	0.0	0.8742018193493976	33.647428684082506
29	1	2	0.0	0.0	0.0	34.8843956476859
30	1	2	0.0	0.0	0.8742018193493976	36.12136261128929
31	1	2	0.0	0.0	0.0	37.358329574892686
32	1	2	0.0	0.0	0.8742018193493976	38.59529653849608
33	1	2	0.0	0.0	0.0	39.83226350209947
34	1	2	0.0	0.0	0.8742018193493976	41.069230465702866
35	1	2	0.0	0.0	0.0	42.30619742930626
36	1	2	0.0	0.0	0.8742018193493976	43.54316439290965
37	1	2	0.0	0.0	0.0	44.780131356513046
38	1	2	0.0	0.0	0.8742018193493976	46.01709832011644
39	1	2	0.0	0.0	0.0	47.25406528371983
40	1	2	0.0	0.0	0.8742018193493976	48.491032247323226
41	1	2	0.0	0.0	0.0	49.72799921092662
42	1	2	0.0	0.0	0.8742018193493976	50.96496617453001
43	1	2	0.0	0.0	0.0	52.201933138133406
44	1	2	0.0	0.0	0.8742018193493976	53.4389001017368
45	1	2	0.0	0.0	0.0	54.67586706534019
46	1	2	0.0	0.0	0.8742018193493976	55.912834028943585
47	1	2	0.0	0.0	0.0	57.14980099254698
48	1	2	0.0	0.0	0.8742018193493976	58.38676795615037
49	1	2	0.0	0.0	0.0	59.623734919753765
50	1	2	0.0	0.0	0.8742018193493976	60.86070188335716
51	1	2	0.0	0.0	0.0	62.09766884696055
52	1	2	0.0	0.0	0.8742018193493976	63.334635810563945
53	1	2	0.0	0.0	0.0	64.57160277416735
54	1	2	0.0	0.0	0.8742018193493976	65.80856973777074
55	1	2	0.0	0.0	0.0	67.04553670137413
56	1	2	0.0	0.0	0.8742018193493976	68.28250366497753
57	1	2	0.0	0.0	0.0	69.51947062858092
58	1	2	0.0	0.0	0.8742018193493976	70.75643759218431
59	1	2	0.0	0.0	0.0	71.9934045557877
60	1	2	0.0	0.0	0.8742018193493976	73.2303715193911
61	1	2	0.0	0.0	0.0	74.46733848299449
62	1	2	0.0	0.0	0.8742018193493976	75.70430544659789
63	1	2	0.0	0.0	0.0	76.94127241020128
64	1	2	0.0	0.0	0.8742018193493976	78.17823937380467
65	1	2	0.0	0.0	0.0	79.41520633740807
66	1	2	0.0	0.0	0.8742018193493976	80.65217330101146
67	1	2	0.0	0.0	0.0	81.88914026461485
68	1	2	0.0	0.0	0.8742018193493976	83.12610722821825
69	1	2	0.0	0.0	0.0	84.36307419182164
70	1	2	0.0	0.0	0.8742018193493976	85.60004115542503
71	1	2	0.0	0.0	0.0	86.83700811902843
72	1	2	0.0	0.0	0.8742018193493976	88.07397508263182
73	1	2	0.0	0.0	0.0	89.31094204623521
74	1	2	0.0	0.0	0.8742018193493976	90.5479090098386
75	1	2	0.0	0.0	0.0	91.784875973442
76	1	2	0.0	0.0	0.8742018193493976	93.02184293704539
77	1	2	0.0	0.0	0.0	94.25880990064879
78	1	2	0.0	0.0	0.8742018193493976	95.49577686425218
79	1	2	0.0	0.0	0.0	96.73274382785557
80	1	2	0.0	0.0	0.8742018193493976	97.96971079145897
81	1	2	0.0	0.0	0.0	99.20667775506236
82	1	2	0.0	0.0	0.8742018193493976	100.44364471866575
83	1	2	0.0	0.0	0.0	101.68061168226915
84	1	2	0.0	0.0	0.8742018193493976	102.91757864587254
85	1	2	0.0	0.0	0.0	104.15454560947593
86	1	2	0.0	0.0	0.8742018193493976	105.39151257307932
87	1	2	0.0	0.0	0.0	106.62847953668272
88	1	2	0.0	0.0	0.8742018193493976	107.86544650028611
89	1	2	0.0	0.0	0.0	109.1024134638895
90	1	2	0.0	0.0	0.8742018193493976	110.3393804274929
91	1	2	0.0	0.0	0.0	111.57634739109629
92	1	2	0.0	0.0	0.8742018193493976	112.81331435469968
93	1	2	0.0	0.0	0.0	114.05028131830308
94	1	2	0.0	0.0	0.8742018193493976	115.28724828190647
95	1	2	0.0	0.0	0.0	116.52421524550986
96	1	2	0.0	0.0	0.8742018193493976	117.76118220911326
97	1	2	0.0	0.0	0.0	118.99814917271665
98	1	2	0.0	0.0	0.8742018193493976	120.23511613632004
99	1	2	0.0	0.0	0.0	121.47208309992344
100	1	2	0.0	0.0	0.8742018193493976	122.70905006352683
101	1	2	0.0	0.0	0.0	123.94601702713022
102	1	2	0.0	0.0	0.8742018193493976	125.18298399073362
103	1	2	0.0	0.0	0.0	126.41995095433701
104	1	2	0.0	0.0	0.8742018193493976	127.6569179179404
105	1	2	0.0	0.0	0.0	128.8938848815438
106	1	2	0.0	0.0	0.8742018193493976	130.13085184514722
107	1	2	0.0	0.0	0.0	131.36781880875063
108	1	2	0.0	0.0	0.8742018193493976	132.60478577235403
109	1	2	0.0	0.0	0.0	133.84175273595744
110	1	2	0.0	0.0	0.8742018193493976	135.07871969956085
111	1	2	0.0	0.0	0.0	136.31568666316426
112	1	2	0.0	0.0	0.8742018193493976	137.55265362676766
113	1	2	0.0	0.0	0.0	138.78962059037107
114	1	2	0.0	0.0	0.8742018193493976	140.02658755397448
115	1	2	0.0	0.0	0.0	141.2635545175779
116	1	2	0.0	0.0	0.8742018193493976	142.5005214811813
117	1	2	0.0	0.0	0.0	143.7374884447847
118	1	2	0.0	0.0	0.8742018193493976	144.9744554083881
119	1	2	0.0	0.0	0.0	146.21142237199152
120	1	2	0.0	0.0	0.8742018193493976	147.44838933559492
121	1	2	0.0	0.0	0.0	148.68535629919833
122	1	2	0.0	0.0	0.8742018193493976	149.92232326280174
123	1	2	0.0	0.0	0.0	151.15929022640515
124	1	2	0.0	0.0	0.8742018193493976	152.39625719000855
125	1	2	0.0	0.0	0.0	153.63322415361196
126	1	2	0.0	0.0	0.8742018193493976	154.87019111721537
127	1	2	0.0	0.0	0.0	156.10715808081878
128	1	2	0.0	0.0	0.8742018193493976	157.34412504442219
129	1	2	0.0	0.0	0.0	158.5810920080256
130	1	2	0.0	0.0	0.8742018193493976	159.818058971629
131	1	2	0.0	0.0	0.0	161.0550259352324
132	1	2	0.0	0.0	0.8742018193493976	162.29199289883582
133	1	2	0.0	0.0	0.0	163.52895986243922
134	1	2	0.0	0.0	0.8742018193493976	164.76592682604263
135	1	2	0.0	0.0	0.0	166.00289378964604
136	1	2	0.0	0.0	0.8742018193493976	167.23986075324945
137	1	2	0.0	0.0	0.0	168.47682771685285
138	1	2	0.0	0.0	0.8742018193493976	169.71379468045626
139	1	2	0.0	0.0	0.0	170.95076164405967
140	1	2	0.0	0.0	0.8742018193493976	172.18772860766308
141	1	2	0.0	0.0	0.0	173.42469557126648
142	1	2	0.0	0.0	0.8742018193493976	174.6616625348699
143	1	2	0.0	0.0	0.0	175.8986294984733
144	1	2	0.0	0.0	0.8742018193493976	177.1355964620767
145	1	2	0.0	0.0	0.0	178.3725634256801
146	1	2	0.0	0.0	0.8742018193493976	179.60953038928352
147	1	2	0.0	0.0	0.0	180.84649735288693
148	1	2	0.0	0.0	0.8742018193493976	182.08346431649034
149	1	2	0.0	0.0	0.0	183.32043128009374
150	1	2	0.0	0.0	0.8742018193493976	184.55739824369715
151	1	2	0.0	0.0	0.0	185.79436520730056
152	1	2	0.0	0.0	0.8742018193493976	187.03133217090397
153	1	2	0.0	0.0	0.0	188.26829913450737
154	1	2	0.0	0.0	0.8742018193493976	189.50526609811078
155	1	2	0.0	0.0	0.0	190.7422330617142
156	1	2	0.0	0.0	0.8742018193493976	191.9792000253176
157	1	2	0.0	0.0	0.0	193.216166988921
158	1	2	0.0	0.0	0.8742018193493976	194.4531339525244
159	1	2	0.0	0.0	0.0	195.69010091612782
160	1	2	0.0	0.0	0.8742018193493976	196.92706787973123
161	1	2	0.0	0.0	0.0	198.16403484333463
162	1	2	0.0	0.0	0.8742018193493976	199.40100180693804
163	1	2	0.0	0.0	0.0	200.63796877054145
164	1	2	0.0	0.0	0.8742018193493976	201.87493573414486
165	1	2	0.0	0.0	0.0	203.11190269774826
166	1	2	0.0	0.0	0.8742018193493976	204.34886966135167
167	1	2	0.0	0.0	0.0	205.58583662495508
168	1	2	0.0	0.0	0.8742018193493976	206.8228035885585
169	1	2	0.0	0.0	0.0	208.0597705521619
170	1	2	0.0	0.0	0.8742018193493976	209.2967375157653
171	1	2	0.0	0.0	0.0	210.5337044793687
172	1	2	0.0	0.0	0.8742018193493976	211.77067144297212
173	1	2	0.0	0.0	0.0	213.00763840657552
174	1	2	0.0	0.0	0.8742018193493976	214.24460537017893
175	1	2	0.0	0.0	0.0	215.48157233378234
176	1	2	0.0	0.0	0.8742018193493976	216.71853929738575
177	1	2	0.0	0.0	0.0	217.95550626098915
178	1	2	0.0	0.0	0.8742018193493976	219.19247322459256
179	1	2	0.0	0.0	0.0	220.42944018819597
180	1	2	0.0	0.0	0.8742018193493976	221.66640715179938
181	1	2	0.0	0.0	0.0	222.90337411540278
182	1	2	0.0	0.0	0.8742018193493976	224.1403410790062
183	1	2	0.0	0.0	0.0	225.3773080426096
184	1	2	0.0	0.0	0.8742018193493976	226.614275006213
185	1	2	0.0	0.0	0.0	227.8512419698164
186	1	2	0.0	0.0	0.8742018193493976	229.08820893341982
187	1	2	0.0	0.0	0.0	230.32517589702323
188	1	2	0.0	0.0	0.8742018193493976	231.56214286062664
189	1	2	0.0	0.0	0.0	232.79910982423004
190	1	2	0.0	0.0	0.8742018193493976	234.03607678783345
191	1	2	0.0	0.0	0.0	235.27304375143686
192	1	2	0.0	0.0	0.8742018193493976	236.51001071504027
193	1	2	0.0	0.0	0.0	237.74697767864367
194	1	2	0.0	0.0	0.8742018193493976	238.98394464224708
195	1	2	0.0	0.0	0.0	240.2209116058505
196	1	2	0.0	0.0	0.8742018193493976	241.4578785694539
197	1	2	0.0	0.0	0.0	242.6948455330573
198	1	2	0.0	0.0	0.8742018193493976	243.9318124966607
199	1	2	0.0	0.0	0.0	245.16877946026412
200	1	2	0.0	0.0	0.8742018193493976	246.40574642386753
201	1	2	0.0	0.0	0.0	247.64271338747093
202	1	2	0.0	0.0	0.8742018193493976	248.87968035107434
203	1	2	0.0	0.0	0.0	250.11664731467775
204	1	2	0.0	0.0	0.8742018193493976	251.35361427828116
205	1	2	0.0	0.0	0.0	252.59058124188456
206	1	2	0.0	0.0	0.8742018193493976	253.82754820548797
207	1	2	0.0	0.0	0.0	255.06451516909138
208	1	2	0.0	0.0	0.8742018193493976	256.3014821326948
209	1	2	0.0	0.0	0.0	257.53844909629817
210	1	2	0.0	0.0	0.8742018193493976	258.77541605990154
211	1	2	0.0	0.0	0.0	260.0123830235049
212	1	2	0.0	0.0	0.8742018193493976	261.2493499871083
213	1	2	0.0	0.0	0.0	262.4863169507117
214	1	2	0.0	0.0	0.8742018193493976	263.72328391431506
215	1	2	0.0	0.0	0.0	264.96025087791844
216	1	2	0.0	0.0	0.8742018193493976	266.1972178415218
217	1	2	0.0	0.0	0.0	267.4341848051252
218	1	2	0.0	0.0	0.8742018193493976	268.6711517687286
219	1	2	0.0	0.0	0.0	269.90811873233196
220	1	2	0.0	0.0	0.8742018193493976	271.14508569593534
221	1	2	0.0	0.0	0.0	272.3820526595387
222	1	2	0.0	0.0	0.8742018193493976	273.6190196231421
223	1	2	0.0	0.0	0.0	274.8559865867455
224	1	2	0.0	0.0	0.8742018193493976	276.09295355034885
225	1	2	0.0	0.0	0.0	277.32992051395223
226	1	2	0.0	0.0	0.8742018193493976	278.5668874775556
227	1	2	0.0	0.0	0.0	279.803854441159
228	1	2	0.0	0.0	0.8742018193493976	281.04082140476237
229	1	2	0.0	0.0	0.0	282.27778836836575
230	1	2	0.0	0.0	0.8742018193493976	283.5147553319691
231	1	2	0.0	0.0	0.0	284.7517222955725
232	1	2	0.0	0.0	0.8742018193493976	285.9886892591759
233	1	2	0.0	0.0	0.0	287.22565622277926
234	1	2	0.0	0.0	0.8742018193493976	288.46262318638264
235	1	2	0.0	0.0	0.0	289.699590149986
236	1	2	0.0	0.0	0.8742018193493976	290.9365571135894
237	1	2	0.0	0.0	0.0	292.1735240771928
238	1	2	0.0	0.0	0.8742018193493976	293.41049104079616
239	1	2	0.0	0.0	0.0	294.64745800439954
240	1	2	0.0	0.0	0.8742018193493976	295.8844249680029
241	1	2	0.0	0.0	0.0	297.1213919316063
242	1	2	0.0	0.0	0.8742018193493976	298.3583588952097
243	1	2	0.0	0.0	0.0	299.59532585881306
244	1	2	0.0	0.0	0.8742018193493976	300.83229282241643
245	1	2	0.0	0.0	0.0	302.0692597860198
246	1	2	0.0	0.0	0.8742018193493976	303.3062267496232
247	1	2	0.0	0.0	0.0	304.5431937132266
248	1	2	0.0	0.0	0.8742018193493976	305.78016067682995
249	1	2	0.0	0.0	0.0	307.01712764043333
250	1	2	0.0	0.0	0.8742018193493976	308.2540946040367
251	1	2	0.0	0.0	0.0	309.4910615676401
252	1	2	0.0	0.0	0.8742018193493976	310.72802853124347
253	1	2	0.0	0.0	0.0	311.96499549484685
254	1	2	0.0	0.0	0.8742018193493976	313.2019624584502
255	1	2	0.0	0.0	0.0	314.4389294220536
256	1	2	0.0	0.0	0.8742018193493976	315.675896385657
257	1	2	0.0	0.0	0.0	316.91286334926036
258	1	2	0.0	0.0	0.8742018193493976	318.14983031286374
259	1	2	0.0	0.0	0.0	319.3867972764671
260	1	2	0.0	0.0	0.8742018193493976	320.6237642400705
261	1	2	0.0	0.0	0.0	321.8607312036739
262	1	2	0.0	0.0	0.8742018193493976	323.09769816727726
263	1	2	0.0	0.0	0.0	324.33466513088064
264	1	2	0.0	0.0	0.8742018193493976	325.571632094484
265	1	2	0.0	0.0	0.0	326.8085990580874
266	1	2	0.0	0.0	0.8742018193493976	328.0455660216908
267	1	2	0.0	0.0	0.0	329.28253298529415
268	1	2	0.0	0.0	0.8742018193493976	330.51949994889753
269	1	2	0.0	0.0	0.0	331.7564669125009
270	1	2	0.0	0.0	0.8742018193493976	332.9934338761043
271	1	2	0.0	0.0	0.0	334.23040083970767
272	1	2	0.0	0.0	0.8742018193493976	335.46736780331105
273	1	2	0.0	0.0	0.0	336.7043347669144
274	1	2	0.0	0.0	0.8742018193493976	337.9413017305178
275	1	2	0.0	0.0	0.0	339.1782686941212
276	1	2	0.0	0.0	0.8742018193493976	340.41523565772457
277	1	2	0.0	0.0	0.0	341.65220262132794
278	1	2	0.0	0.0	0.8742018193493976	342.8891695849313
279	1	2	0.0	0.0	0.0	344.1261365485347
280	1	2	0.0	0.0	0.8742018193493976	345.3631035121381
281	1	2	0.0	0.0	0.0	346.60007047574146
282	1	2	0.0	0.0	0.8742018193493976	347.83703743934484
283	1	2	0.0	0.0	0.0	349.0740044029482
284	1	2	0.0	0.0	0.8742018193493976	350.3109713665516
285	1	2	0.0	0.0	0.0	351.547938330155
286	1	2	0.0	0.0	0.8742018193493976	352.78490529375836
287	1	2	0.0	0.0	0.0	354.02187225736174
288	1	2	0.0	0.0	0.8742018193493976	355.2588392209651
289	1	2	0.0	0.0	0.0	356.4958061845685
290	1	2	0.0	0.0	0.8742018193493976	357.7327731481719
291	1	2	0.0	0.0	0.0	358.96974011177525
292	1	2	0.0	0.0	0.8742018193493976	360.20670707537863
293	1	2	0.0	0.0	0.0	361.443674038982
294	1	2	0.0	0.0	0.8742018193493976	362.6806410025854
295	1	2	0.0	0.0	0.0	363.91760796618877
296	1	2	0.0	0.0	0.8742018193493976	365.15457492979215
297	1	2	0.0	0.0	0.0	366.3915418933955
298	1	2	0.0	0.0	0.8742018193493976	367.6285088569989
299	1	2	0.0	0.0	0.0	368.8654758206023
300	1	2	0.0	0.0	0.8742018193493976	370.10244278420566
301	1	2	0.0	0.0	0.0	371.33940974780904
302	1	2	0.0	0.0	0.8742018193493976	372.5763767114124
303	1	2	0.0	0.0	0.0	373.8133436750158
304	1	2	0.0	0.0	0.8742018193493976	375.0503106386192
305	1	2	0.0	0.0	0.0	376.28727760222256
306	1	2	0.0	0.0	0.8742018193493976	377.52424456582594
307	1	2	0.0	0.0	0.0	378.7612115294293
308	1	2	0.0	0.0	0.8742018193493976	379.9981784930327
309	1	2	0.0	0.0	0.0	381.2351454566361
310	1	2	0.0	0.0	0.8742018193493976	382.47211242023945
311	1	2	0.0	0.0	0.0	383.70907938384283
312	1	2	0.0	0.0	0.8742018193493976	384.9460463474462
313	1	2	0.0	0.0	0.0	386.1830133110496
314	1	2	0.0	0.0	0.8742018193493976	387.41998027465297
315	1	2	0.0	0.0	0.0	388.65694723825635
316	1	2	0.0	0.0	0.8742018193493976	389.89391420185973
317	1	2	0.0	0.0	0.0	391.1308811654631
318	1	2	0.0	0.0	0.8742018193493976	392.3678481290665
319	1	2	0.0	0.0	0.0	393.60481509266987
320	1	2	0.0	0.0	0.8742018193493976	394.84178205627325
321	1	2	0.0	0.0	0.0	396.0787490198766
322	1	2	0.0	0.0	0.8742018193493976	397.31571598348
323	1	2	0.0	0.0	0.0	398.5526829470834
324	1	2	0.0	0.0	0.8742018193493976	399.78964991068676
325	1	2	0.0	0.0	0.0	401.02661687429014
326	1	2	0.0	0.0	0.8742018193493976	402.2635838378935
327	1	2	0.0	0.0	0.0	403.5005508014969
328	1	2	0.0	0.0	0.8742018193493976	404.7375177651003
329	1	2	0.0	0.0	0.0	405.97448472870366
330	1	2	0.0	0.0	0.8742018193493976	407.21145169230704
331	1	2	0.0	0.0	0.0	408.4484186559104
332	1	2	0.0	0.0	0.8742018193493976	409.6853856195138
333	1	2	0.0	0.0	0.0	410.9223525831172
334	1	2	0.0	0.0	0.8742018193493976	412.15931954672055
335	1	2	0.0	0.0	0.0	413.39628651032393
336	1	2	0.0	0.0	0.8742018193493976	414.6332534739273
337	1	2	0.0	0.0	0.0	415.8702204375307
338	1	2	0.0	0.0	0.8742018193493976	417.10718740113407
339	1	2	0.0	0.0	0.0	418.34415436473745
340	1	2	0.0	0.0	0.8742018193493976	419.5811213283408
341	1	2	0.0	0.0	0.0	420.8180882919442
342	1	2	0.0	0.0	0.8742018193493976	422.0550552555476
343	1	2	0.0	0.0	0.0	423.29202221915097
344	1	2	0.0	0.0	0.8742018193493976	424.52898918275434
345	1	2	0.0	0.0	0.0	425.7659561463577
346	1	2	0.0	0.0	0.8742018193493976	427.0029231099611
347	1	2	0.0	0.0	0.0	428.2398900735645
348	1	2	0.0	0.0	0.8742018193493976	429.47685703716786
349	1	2	0.0	0.0	0.0	430.71382400077124
350	1	2	0.0	0.0	0.8742018193493976	431.9507909643746
351	1	2	0.0	0.0	0.0	433.187757927978
352	1	2	0.0	0.0	0.8742018193493976	434.4247248915814
353	1	2	0.0	0.0	0.0	435.66169185518476
354	1	2	0.0	0.0	0.8742018193493976	436.89865881878814
355	1	2	0.0	0.0	0.0	438.1356257823915
356	1	2	0.0	0.0	0.8742018193493976	439.3725927459949
357	1	2	0.0	0.0	0.0	440.6095597095983
358	1	2	0.0	0.0	0.8742018193493976	441.84652667320165
359	1	2	0.0	0.0	0.0	443.08349363680503
360	1	2	0.0	0.0	0.8742018193493976	444.3204606004084
361	1	2	0.0	0.0	0.0	445.5574275640118
362	1	2	0.0	0.0	0.8742018193493976	446.79439452761517
363	1	2	0.0	0.0	0.0	448.03136149121855
364	1	2	0.0	0.0	0.8742018193493976	449.2683284548219
365	1	2	0.0	0.0	0.0	450.5052954184253
366	1	2	0.0	0.0	0.8742018193493976	451.7422623820287
367	1	2	0.0	0.0	0.0	452.97922934563206
368	1	2	0.0	0.0	0.8742018193493976	454.21619630923544
369	1	2	0.0	0.0	0.0	455.4531632728388
370	1	2	0.0	0.0	0.8742018193493976	456.6901302364422
371	1	2	0.0	0.0	0.0	457.9270972000456
372	1	2	0.0	0.0	0.8742018193493976	459.16406416364896
373	1	2	0.0	0.0	0.0	460.40103112725234
374	1	2	0.0	0.0	0.8742018193493976	461.6379980908557
375	1	2	0.0	0.0	0.0	462.8749650544591
376	1	2	0.0	0.0	0.8742018193493976	464.1119320180625
377	1	2	0.0	0.0	0.0	465.34889898166585
378	1	2	0.0	0.0	0.8742018193493976	466.58586594526923
379	1	2	0.0	0.0	0.0	467.8228329088726
380	1	2	0.0	0.0	0.8742018193493976	469.059799872476
381	1	2	0.0	0.0	0.0	470.29676683607937
382	1	2	0.0	0.0	0.8742018193493976	471.53373379968275
383	1	2	0.0	0.0	0.0	472.77070076328613
384	1	2	0.0	0.0	0.8742018193493976	474.0076677268895
385	1	2	0.0	0.0	0.0	475.2446346904929
386	1	2	0.0	0.0	0.8742018193493976	476.48160165409627
387	1	2	0.0	0.0	0.0	477.71856861769965
388	1	2	0.0	0.0	0.8742018193493976	478.955535581303
389	1	2	0.0	0.0	0.0	480.1925025449064
390	1	2	0.0	0.0	0.8742018193493976	481.4294695085098
391	1	2	0.0	0.0	0.0	482.66643647211316
392	1	2	0.0	0.0	0.8742018193493976	483.90340343571654
393	1	2	0.0	0.0	0.0	485.1403703993199
394	1	2	0.0	0.0	0.8742018193493976	486.3773373629233
395	1	2	0.0	0.0	0.0	487.6143043265267
396	1	2	0.0	0.0	0.8742018193493976	488.85127129013006
397	1	2	0.0	0.0	0.0	490.08823825373344
398	1	2	0.0	0.0	0.8742018193493976	491.3252052173368
399	1	2	0.0	0.0	0.0	492.5621721809402
400	1	2	0.0	0.0	0.8742018193493976	493.7991391445436
401	1	2	0.0	0.0	0.0	495.03610610814695
402	1	2	0.0	0.0	0.8742018193493976	496.27307307175033
403	1	2	0.0	0.0	0.0	497.5100400353537
404	1	2	0.0	0.0	0.8742018193493976	498.7470069989571
405	1	2	0.0	0.0	0.0	499.98397396256047
406	1	2	0.0	0.0	0.8742018193493976	501.22094092616385
407	1	2	0.0	0.0	0.0	502.4579078897672
408	1	2	0.0	0.0	0.8742018193493976	503.6948748533706
409	1	2	0.0	0.0	0.0	504.931841816974
410	1	2	0.0	0.0	0.8742018193493976	506.16880878057736
411	1	2	0.0	0.0	0.0	507.40577574418074
412	1	2	0.0	0.0	0.8742018193493976	508.6427427077841
413	1	2	0.0	0.0	0.0	509.8797096713875
414	1	2	0.0	0.0	0.8742018193493976	511.1166766349909
415	1	2	0.0	0.0	0.0	512.3536435985943
416	1	2	0.0	0.0	0.8742018193493976	513.5906105621978
417	1	2	0.0	0.0	0.0	514.8275775258012
418	1	2	0.0	0.0	0.8742018193493976	516.0645444894046
419	1	2	0.0	0.0	0.0	517.3015114530081
420	1	2	0.0	0.0	0.8742018193493976	518.5384784166115
421	1	2	0.0	0.0	0.0	519.7754453802149
422	1	2	0.0	0.0	0.8742018193493976	521.0124123438184
423	1	2	0.0	0.0	0.0	522.2493793074218
424	1	2	0.0	0.0	0.8742018193493976	523.4863462710252
425	1	2	0.0	0.0	0.0	524.7233132346287
426	1	2	0.0	0.0	0.8742018193493976	525.9602801982321
427	1	2	0.0	0.0	0.0	527.1972471618355
428	1	2	0.0	0.0	0.8742018193493976	528.434214125439
429	1	2	0.0	0.0	0.0	529.6711810890424
430	1	2	0.0	0.0	0.8742018193493976	530.9081480526459
431	1	2	0.0	0.0	0.0	532.1451150162493
432	1	2	0.0	0.0	0.8742018193493976	533.3820819798527
433	1	2	0.0	0.0	0.0	534.6190489434562
434	1	2	0.0	0.0	0.8742018193493976	535.8560159070596
435	1	2	0.0	0.0	0.0	537.092982870663
436	1	2	0.0	0.0	0.8742018193493976	538.3299498342665
437	1	2	0.0	0.0	0.0	539.5669167978699
438	1	2	0.0	0.0	0.8742018193493976	540.8038837614733
439	1	2	0.0	0.0	0.0	542.0408507250768
440	1	2	0.0	0.0	0.8742018193493976	543.2778176886802
441	1	2	0.0	0.0	0.0	544.5147846522837
442	1	2	0.0	0.0	0.8742018193493976	545.7517516158871
443	1	2	0.0	0.0	0.0	546.9887185794905
444	1	2	0.0	0.0	0.8742018193493976	548.225685543094
445	1	2	0.0	0.0	0.0	549.4626525066974
446	1	2	0.0	0.0	0.8742018193493976	550.6996194703008
447	1	2	0.0	0.0	0.0	551.9365864339043
448	1	2	0.0	0.0	0.8742018193493976	553.1735533975077
449	1	2	0.0	0.0	0.0	554.4105203611111
450	1	2	0.0	0.0	0.8742018193493976	555.6474873247146
451	1	2	0.0	0.0	0.0	556.884454288318
452	1	2	0.0	0.0	0.8742018193493976	558.1214212519214
453	1	2	0.0	0.0	0.0	559.3583882155249
454	1	2	0.0	0.0	0.8742018193493976	560.5953551791283
455	1	2	0.0	0.0	0.0	561.8323221427318
456	1	2	0.0	0.0	0.8742018193493976	563.0692891063352
457	1	2	0.0	0.0	0.0	564.3062560699386
458	1	2	0.0	0.0	0.8742018193493976	565.5432230335421
459	1	2	0.0	0.0	0.0	566.7801899971455
460	1	2	0.0	0.0	0.8742018193493976	568.0171569607489
461	1	2	0.0	0.0	0.0	569.2541239243524
462	1	2	0.0	0.0	0.8742018193493976	570.4910908879558
463	1	2	0.0	0.0	0.0	571.7280578515592
464	1	2	0.0	0.0	0.8742018193493976	572.9650248151627
465	1	2	0.0	0.0	0.0	574.2019917787661
466	1	2	0.0	0.0	0.8742018193493976	575.4389587423696
467	1	2	0.0	0.0	0.0	576.675925705973
468	1	2	0.0	0.0	0.8742018193493976	577.9128926695764
469	1	2	0.0	0.0	0.0	579.1498596331799
470	1	2	0.0	0.0	0.8742018193493976	580.3868265967833
471	1	2	0.0	0.0	0.0	581.6237935603867
472	1	2	0.0	0.0	0.8742018193493976	582.8607605239902
473	1	2	0.0	0.0	0.0	584.0977274875936
474	1	2	0.0	0.0	0.8742018193493976	585.334694451197
475	1	2	0.0	0.0	0.0	586.5716614148005
476	1	2	0.0	0.0	0.8742018193493976	587.8086283784039
477	1	2	0.0	0.0	0.0	589.0455953420073
478	1	2	0.0	0.0	0.8742018193493976	590.2825623056108
479	1	2	0.0	0.0	0.0	591.5195292692142
480	1	2	0.0	0.0	0.8742018193493976	592.7564962328177
481	1	2	0.0	0.0	0.0	593.9934631964211
482	1	2	0.0	0.0	0.8742018193493976	595.2304301600245
483	1	2	0.0	0.0	0.0	596.467397123628
484	1	2	0.0	0.0	0.8742018193493976	597.7043640872314
485	1	2	0.0	0.0	0.0	598.9413310508348
486	1	2	0.0	0.0	0.8742018193493976	600.1782980144383
487	1	2	0.0	0.0	0.0	601.4152649780417
488	1	2	0.0	0.0	0.8742018193493976	602.6522319416451
489	1	2	0.0	0.0	0.0	603.8891989052486
490	1	2	0.0	0.0	0.8742018193493976	605.126165868852
491	1	2	0.0	0.0	0.0	606.3631328324554
492	1	2	0.0	0.0	0.8742018193493976	607.6000997960589
493	1	2	0.0	0.0	0.0	608.8370667596623
494	1	2	0.0	0.0	0.8742018193493976	610.0740337232658
495	1	2	0.0	0.0	0.0	611.3110006868692
496	1	2	0.0	0.0	0.8742018193493976	612.5479676504726
497	1	2	0.0	0.0	0.0	613.7849346140761
498	1	2	0.0	0.0	0.8742018193493976	615.0219015776795
499	1	2	0.0	0.0	0.0	616.2588685412829
500	1	2	0.0	0.0	0.8742018193493976	617.4958355048864
501	1	2	0.0	0.0	0.0	618.7328024684898
502	1	2	0.0	0.0	0.8742018193493976	619.9697694320932
503	1	2	0.0	0.0	0.0	621.2067363956967
504	1	2	0.0	0.0	0.8742018193493976	622.4437033593001
505	1	2	0.0	0.0	0.0	623.6806703229036
506	1	2	0.0	0.0	0.8742018193493976	624.917637286507
507	1	2	0.0	0.0	0.0	626.1546042501104
508	1	2	0.0	0.0	0.8742018193493976	627.3915712137139
509	1	2	0.0	0.0	0.0	628.6285381773173
510	1	2	0.0	0.0	0.8742018193493976	629.8655051409207
511	1	2	0.0	0.0	0.0	631.1024721045242
512	1	2	0.0	0.0	0.8742018193493976	632.3394390681276
513	1	2	0.0	0.0	0.0	633.576406031731
514	1	2	0.0	0.0	0.8742018193493976	634.8133729953345
515	1	2	0.0	0.0	0.0	636.0503399589379
516	1	2	0.0	0.0	0.8742018193493976	637.2873069225413
517	1	2	0.0	0.0	0.0	638.5242738861448
518	1	2	0.0	0.0	0.8742018193493976	639.7612408497482
519	1	2	0.0	0.0	0.0	640.9982078133517
520	1	2	0.0	0.0	0.8742018193493976	642.2351747769551
521	1	2	0.0	0.0	0.0	643.4721417405585
522	1	2	0.0	0.0	0.8742018193493976	644.709108704162
523	1	2	0.0	0.0	0.0	645.9460756677654
524	1	2	0.0	0.0	0.8742018193493976	647.1830426313688
525	1	2	0.0	0.0	0.0	648.4200095949723
526	1	2	0.0	0.0	0.8742018193493976	649.6569765585757
527	1	2	0.0	0.0	0.0	650.8939435221791
528	1	2	0.0	0.0	0.8742018193493976	652.1309104857826
529	1	2	0.0	0.0	0.0	653.367877449386
530	1	2	0.0	0.0	0.8742018193493976	654.6048444129895
531	1	2	0.0	0.0	0.0	655.8418113765929
532	1	2	0.0	0.0	0.8742018193493976	657.0787783401963
533	1	2	0.0	0.0	0.0	658.3157453037998
534	1	2	0.0	0.0	0.8742018193493976	659.5527122674032
535	1	2	0.0	0.0	0.0	660.7896792310066
536	1	2	0.0	0.0	0.8742018193493976	662.0266461946101
537	1	2	0.0	0.0	0.0	663.2636131582135
538	1	2	0.0	0.0	0.8742018193493976	664.5005801218169
539	1	2	0.0	0.0	0.0	665.7375470854204
540	1	2	0.0	0.0	0.8742018193493976	666.9745140490238
541	1	2	0.0	0.0	0.0	668.2114810126272
542	1	2	0.0	0.0	0.8742018193493976	669.4484479762307
543	1	2	0.0	0.0	0.0	670.6854149398341
544	1	2	0.0	0.0	0.8742018193493976	671.9223819034376
545	1	2	0.0	0.0	0.0	673.159348867041
546	1	2	0.0	0.0	0.8742018193493976	674.3963158306444
547	1	2	0.0	0.0	0.0	675.6332827942479
548	1	2	0.0	0.0	0.8742018193493976	676.8702497578513
549	1	2	0.0	0.0	0.0	678.1072167214547
550	1	2	0.0	0.0	0.8742018193493976	679.3441836850582
551	1	2	0.0	0.0	0.0	680.5811506486616
552	1	2	0.0	0.0	0.8742018193493976	681.818117612265
553	1	2	0.0	0.0	0.0	683.0550845758685
554	1	2	0.0	0.0	0.8742018193493976	684.2920515394719
555	1	2	0.0	0.0	0.0	685.5290185030753
556	1	2	0.0	0.0	0.8742018193493976	686.7659854666788
557	1	2	0.0	0.0	0.0	688.0029524302822
558	1	2	0.0	0.0	0.8742018193493976	689.2399193938857
559	1	2	0.0	0.0	0.0	690.4768863574891
560	1	2	0.0	0.0	0.8742018193493976	691.7138533210925
561	1	2	0.0	0.0	0.0	692.950820284696
562	1	2	0.0	0.0	0.8742018193493976	694.1877872482994
563	1	2	0.0	0.0	0.0	695.4247542119028
564	1	2	0.0	0.0	0.8742018193493976	696.6617211755063
565	1	2	0.0	0.0	0.0	697.8986881391097
566	1	2	0.0	0.0	0.8742018193493976	699.1356551027131
567	1	2	0.0	0.0	0.0	700.3726220663166
568	1	2	0.0	0.0	0.8742018193493976	701.60958902992
569	1	2	0.0	0.0	0.0	702.8465559935235
570	1	2	0.0	0.0	0.8742018193493976	704.0835229571269
571	1	2	0.0	0.0	0.0	705.3204899207303
572	1	2	0.0	0.0	0.8742018193493976	706.5574568843338
573	1	2	0.0	0.0	0.0	707.7944238479372
574	1	2	0.0	0.0	0.8742018193493976	709.0313908115406
575	1	2	0.0	0.0	0.0	710.2683577751441
576	1	2	0.0	0.0	0.8742018193493976	711.5053247387475
577	1	2	0.0	0.0	0.0	712.7422917023509
578	1	2	0.0	0.0	0.8742018193493976	713.9792586659544
579	1	2	0.0	0.0	0.0	715.2162256295578
580	1	2	0.0	0.0	0.8742018193493976	716.4531925931612
581	1	2	0.0	0.0	0.0	717.6901595567647
582	1	2	0.0	0.0	0.8742018193493976	718.9271265203681
583	1	2	0.0	0.0	0.0	720.1640934839716
584	1	2	0.0	0.0	0.8742018193493976	721.401060447575
585	1	2	0.0	0.0	0.0	722.6380274111784
586	1	2	0.0	0.0	0.8742018193493976	723.8749943747819
587	1	2	0.0	0.0	0.0	725.1119613383853
588	1	2	0.0	0.0	0.8742018193493976	726.3489283019887
589	1	2	0.0	0.0	0.0	727.5858952655922
590	1	2	0.0	0.0	0.8742018193493976	728.8228622291956
591	1	2	0.0	0.0	0.0	730.059829192799
592	1	2	0.0	0.0	0.8742018193493976	731.2967961564025
593	1	2	0.0	0.0	0.0	732.5337631200059
594	1	2	0.0	0.0	0.8742018193493976	733.7707300836094
595	1	2	0.0	0.0	0.0	735.0076970472128
596	1	2	0.0	0.0	0.8742018193493976	736.2446640108162
597	1	2	0.0	0.0	0.0	737.4816309744197
598	1	2	0.0	0.0	0.8742018193493976	738.7185979380231
599	1	2	0.0	0.0	0.0	739.9555649016265
600	1	2	0.0	0.0	0.8742018193493976	741.19253186523
601	1	2	0.0	0.0	0.0	742.4294988288334
602	1	2	0.0	0.0	0.8742018193493976	743.6664657924368
603	1	2	0.0	0.0	0.0	744.9034327560403
604	1	2	0.0	0.0	0.8742018193493976	746.1403997196437
605	1	2	0.0	0.0	0.0	747.3773666832471
606	1	2	0.0	0.0	0.8742018193493976	748.6143336468506
607	1	2	0.0	0.0	0.0	749.851300610454
608	1	2	0.0	0.0	0.8742018193493976	751.0882675740575
609	1	2	0.0	0.0	0.0	752.3252345376609
610	1	2	0.0	0.0	0.8742018193493976	753.5622015012643
611	1	2	0.0	0.0	0.0	754.7991684648678
612	1	2	0.0	0.0	0.8742018193493976	756.0361354284712
613	1	2	0.0	0.0	0.0	757.2731023920746
614	1	2	0.0	0.0	0.8742018193493976	758.5100693556781
615	1	2	0.0	0.0	0.0	759.7470363192815
616	1	2	0.0	0.0	0.8742018193493976	760.9840032828849
617	1	2	0.0	0.0	0.0	762.2209702464884
618	1	2	0.0	0.0	0.8742018193493976	763.4579372100918
619	1	2	0.0	0.0	0.0	764.6949041736952
620	1	2	0.0	0.0	0.8742018193493976	765.9318711372987
621	1	2	0.0	0.0	0.0	767.1688381009021
622	1	2	0.0	0.0	0.8742018193493976	768.4058050645056
623	1	2	0.0	0.0	0.0	769.642772028109
624	1	2	0.0	0.0	0.8742018193493976	770.8797389917124
625	1	2	0.0	0.0	0.0	772.1167059553159
626	1	2	0.0	0.0	0.8742018193493976	773.3536729189193
627	1	2	0.0	0.0	0.0	774.5906398825227
628	1	2	0.0	0.0	0.8742018193493976	775.8276068461262
629	1	2	0.0	0.0	0.0	777.0645738097296
630	1	2	0.0	0.0	0.8742018193493976	778.301540773333
631	1	2	0.0	0.0	0.0	779.5385077369365
632	1	2	0.0	0.0	0.8742018193493976	780.7754747005399
633	1	2	0.0	0.0	0.0	782.0124416641434
634	1	2	0.0	0.0	0.8742018193493976	783.2494086277468
635	1	2	0.0	0.0	0.0	784.4863755913502
636	1	2	0.0	0.0	0.8742018193493976	785.7233425549537
637	1	2	0.0	0.0	0.0	786.9603095185571
638	1	2	0.0	0.0	0.8742018193493976	788.1972764821605
639	1	2	0.0	0.0	0.0	789.434243445764
640	1	2	0.0	0.0	0.8742018193493976	790.6712104093674
641	1	2	0.0	0.0	0.0	791.9081773729708
642	1	2	0.0	0.0	0.8742018193493976	793.1451443365743
643	1	2	0.0	0.0	0.0	794.3821113001777
644	1	2	0.0	0.0	0.8742018193493976	795.6190782637811
645	1	2	0.0	0.0	0.0	796.8560452273846
646	1	2	0.0	0.0	0.8742018193493976	798.093012190988
647	1	2	0.0	0.0	0.0	799.3299791545915
648	1	2	0.0	0.0	0.8742018193493976	800.5669461181949
649	1	2	0.0	0.0	0.0	801.8039130817983
650	1	2	0.0	0.0	0.8742018193493976	803.0408800454018
651	1	2	0.0	0.0	0.0	804.2778470090052
652	1	2	0.0	0.0	0.8742018193493976	805.5148139726086