# LAMMPS data file written by OVITO Basic 3.5.2
4008 atoms
4004 bonds
4000 angles
3996 dihedrals
3 atom types
2 bond types
2 angle types
2 dihedral types
0.0 8.0 xlo xhi
0.2 9.9484036387 ylo yhi
11.8 1254.5025719006 zlo zhi

Masses

1 196.9665  # Au
2 14.0107  # C
3 32.065  # S

Atoms  # full

1 1 3 0.0 0.3737738942 5.0540548816 13.6
2 1 2 0.0 -0.0764733279 5.8033920954 15.0862876304
3 1 2 0.0 0.3737738942 5.0540548816 16.323254594
4 1 2 0.0 -0.0764733279 5.8033920954 17.5602215576
5 1 2 0.0 0.3737738942 5.0540548816 18.7971885212
6 1 2 0.0 -0.0764733279 5.8033920954 20.0341554848
7 1 2 0.0 0.3737738942 5.0540548816 21.2711224484
8 1 2 0.0 -0.0764733279 5.8033920954 22.508089412
9 1 2 0.0 0.3737738942 5.0540548816 23.7450563756
10 1 2 0.0 -0.0764733279 5.8033920954 24.9820233392
11 1 2 0.0 0.3737738942 5.0540548816 26.2189903028
12 1 2 0.0 -0.0764733279 5.8033920954 27.4559572664
13 1 2 0.0 0.3737738942 5.0540548816 28.69292423
14 1 2 0.0 -0.0764733279 5.8033920954 29.9298911936
15 1 2 0.0 0.3737738942 5.0540548816 31.1668581572
16 1 2 0.0 -0.0764733279 5.8033920954 32.4038251208
17 1 2 0.0 0.3737738942 5.0540548816 33.6407920844
18 1 2 0.0 -0.0764733279 5.8033920954 34.877759048
19 1 2 0.0 0.3737738942 5.0540548816 36.1147260117
20 1 2 0.0 -0.0764733279 5.8033920954 37.3516929753
21 1 2 0.0 0.3737738942 5.0540548816 38.5886599389
22 1 2 0.0 -0.0764733279 5.8033920954 39.8256269025
23 1 2 0.0 0.3737738942 5.0540548816 41.0625938661
24 1 2 0.0 -0.0764733279 5.8033920954 42.2995608297
25 1 2 0.0 0.3737738942 5.0540548816 43.5365277933
26 1 2 0.0 -0.0764733279 5.8033920954 44.7734947569
27 1 2 0.0 0.3737738942 5.0540548816 46.0104617205
28 1 2 0.0 -0.0764733279 5.8033920954 47.2474286841
29 1 2 0.0 0.3737738942 5.0540548816 48.4843956477
30 1 2 0.0 -0.0764733279 5.8033920954 49.7213626113
31 1 2 0.0 0.3737738942 5.0540548816 50.9583295749
32 1 2 0.0 -0.0764733279 5.8033920954 52.1952965385
33 1 2 0.0 0.3737738942 5.0540548816 53.4322635021
34 1 2 0.0 -0.0764733279 5.8033920954 54.6692304657
35 1 2 0.0 0.3737738942 5.0540548816 55.9061974293
36 1 2 0.0 -0.0764733279 5.8033920954 57.1431643929
37 1 2 0.0 0.3737738942 5.0540548816 58.3801313565
38 1 2 0.0 -0.0764733279 5.8033920954 59.6170983201
39 1 2 0.0 0.3737738942 5.0540548816 60.8540652837
40 1 2 0.0 -0.0764733279 5.8033920954 62.0910322473
41 1 2 0.0 0.3737738942 5.0540548816 63.3279992109
42 1 2 0.0 -0.0764733279 5.8033920954 64.5649661745
43 1 2 0.0 0.3737738942 5.0540548816 65.8019331381
44 1 2 0.0 -0.0764733279 5.8033920954 67.0389001017
45 1 2 0.0 0.3737738942 5.0540548816 68.2758670653
46 1 2 0.0 -0.0764733279 5.8033920954 69.5128340289
47 1 2 0.0 0.3737738942 5.0540548816 70.7498009925
48 1 2 0.0 -0.0764733279 5.8033920954 71.9867679562
49 1 2 0.0 0.3737738942 5.0540548816 73.2237349198
50 1 2 0.0 -0.0764733279 5.8033920954 74.4607018834
51 1 2 0.0 0.3737738942 5.0540548816 75.697668847
52 1 2 0.0 -0.0764733279 5.8033920954 76.9346358106
53 1 2 0.0 0.3737738942 5.0540548816 78.1716027742
54 1 2 0.0 -0.0764733279 5.8033920954 79.4085697378
55 1 2 0.0 0.3737738942 5.0540548816 80.6455367014
56 1 2 0.0 -0.0764733279 5.8033920954 81.882503665
57 1 2 0.0 0.3737738942 5.0540548816 83.1194706286
58 1 2 0.0 -0.0764733279 5.8033920954 84.3564375922
59 1 2 0.0 0.3737738942 5.0540548816 85.5934045558
60 1 2 0.0 -0.0764733279 5.8033920954 86.8303715194
61 1 2 0.0 0.3737738942 5.0540548816 88.067338483
62 1 2 0.0 -0.0764733279 5.8033920954 89.3043054466
63 1 2 0.0 0.3737738942 5.0540548816 90.5412724102
64 1 2 0.0 -0.0764733279 5.8033920954 91.7782393738
65 1 2 0.0 0.3737738942 5.0540548816 93.0152063374
66 1 2 0.0 -0.0764733279 5.8033920954 94.252173301
67 1 2 0.0 0.3737738942 5.0540548816 95.4891402646
68 1 2 0.0 -0.0764733279 5.8033920954 96.7261072282
69 1 2 0.0 0.3737738942 5.0540548816 97.9630741918
70 1 2 0.0 -0.0764733279 5.8033920954 99.2000411554
71 1 2 0.0 0.3737738942 5.0540548816 100.437008119
72 1 2 0.0 -0.0764733279 5.8033920954 101.6739750826
73 1 2 0.0 0.3737738942 5.0540548816 102.9109420462
74 1 2 0.0 -0.0764733279 5.8033920954 104.1479090098
75 1 2 0.0 0.3737738942 5.0540548816 105.3848759734
76 1 2 0.0 -0.0764733279 5.8033920954 106.621842937
77 1 2 0.0 0.3737738942 5.0540548816 107.8588099006
78 1 2 0.0 -0.0764733279 5.8033920954 109.0957768643
79 1 2 0.0 0.3737738942 5.0540548816 110.3327438279
80 1 2 0.0 -0.0764733279 5.8033920954 111.5697107915
81 1 2 0.0 0.3737738942 5.0540548816 112.8066777551
82 1 2 0.0 -0.0764733279 5.8033920954 114.0436447187
83 1 2 0.0 0.3737738942 5.0540548816 115.2806116823
84 1 2 0.0 -0.0764733279 5.8033920954 116.5175786459
85 1 2 0.0 0.3737738942 5.0540548816 117.7545456095
86 1 2 0.0 -0.0764733279 5.8033920954 118.9915125731
87 1 2 0.0 0.3737738942 5.0540548816 120.2284795367
88 1 2 0.0 -0.0764733279 5.8033920954 121.4654465003
89 1 2 0.0 0.3737738942 5.0540548816 122.7024134639
90 1 2 0.0 -0.0764733279 5.8033920954 123.9393804275
91 1 2 0.0 0.3737738942 5.0540548816 125.1763473911
92 1 2 0.0 -0.0764733279 5.8033920954 126.4133143547
93 1 2 0.0 0.3737738942 5.0540548816 127.6502813183
94 1 2 0.0 -0.0764733279 5.8033920954 128.8872482819
95 1 2 0.0 0.3737738942 5.0540548816 130.1242152455
96 1 2 0.0 -0.0764733279 5.8033920954 131.3611822091
97 1 2 0.0 0.3737738942 5.0540548816 132.5981491727
98 1 2 0.0 -0.0764733279 5.8033920954 133.8351161363
99 1 2 0.0 0.3737738942 5.0540548816 135.0720830999
100 1 2 0.0 -0.0764733279 5.8033920954 136.3090500635
101 1 2 0.0 0.3737738942 5.0540548816 137.5460170271
102 1 2 0.0 -0.0764733279 5.8033920954 138.7829839907
103 1 2 0.0 0.3737738942 5.0540548816 140.0199509543
104 1 2 0.0 -0.0764733279 5.8033920954 141.2569179179
105 1 2 0.0 0.3737738942 5.0540548816 142.4938848815
106 1 2 0.0 -0.0764733279 5.8033920954 143.7308518451
107 1 2 0.0 0.3737738942 5.0540548816 144.9678188088
108 1 2 0.0 -0.0764733279 5.8033920954 146.2047857724
109 1 2 0.0 0.3737738942 5.0540548816 147.441752736
110 1 2 0.0 -0.0764733279 5.8033920954 148.6787196996
111 1 2 0.0 0.3737738942 5.0540548816 149.9156866632
112 1 2 0.0 -0.0764733279 5.8033920954 151.1526536268
113 1 2 0.0 0.3737738942 5.0540548816 152.3896205904
114 1 2 0.0 -0.0764733279 5.8033920954 153.626587554
115 1 2 0.0 0.3737738942 5.0540548816 154.8635545176
116 1 2 0.0 -0.0764733279 5.8033920954 156.1005214812
117 1 2 0.0 0.3737738942 5.0540548816 157.3374884448
118 1 2 0.0 -0.0764733279 5.8033920954 158.5744554084
119 1 2 0.0 0.3737738942 5.0540548816 159.811422372
120 1 2 0.0 -0.0764733279 5.8033920954 161.0483893356
121 1 2 0.0 0.3737738942 5.0540548816 162.2853562992
122 1 2 0.0 -0.0764733279 5.8033920954 163.5223232628
123 1 2 0.0 0.3737738942 5.0540548816 164.7592902264
124 1 2 0.0 -0.0764733279 5.8033920954 165.99625719
125 1 2 0.0 0.3737738942 5.0540548816 167.2332241536
126 1 2 0.0 -0.0764733279 5.8033920954 168.4701911172
127 1 2 0.0 0.3737738942 5.0540548816 169.7071580808
128 1 2 0.0 -0.0764733279 5.8033920954 170.9441250444
129 1 2 0.0 0.3737738942 5.0540548816 172.181092008
130 1 2 0.0 -0.0764733279 5.8033920954 173.4180589716
131 1 2 0.0 0.3737738942 5.0540548816 174.6550259352
132 1 2 0.0 -0.0764733279 5.8033920954 175.8919928988
133 1 2 0.0 0.3737738942 5.0540548816 177.1289598624
134 1 2 0.0 -0.0764733279 5.8033920954 178.365926826
135 1 2 0.0 0.3737738942 5.0540548816 179.6028937896
136 1 2 0.0 -0.0764733279 5.8033920954 180.8398607532
137 1 2 0.0 0.3737738942 5.0540548816 182.0768277169
138 1 2 0.0 -0.0764733279 5.8033920954 183.3137946805
139 1 2 0.0 0.3737738942 5.0540548816 184.5507616441
140 1 2 0.0 -0.0764733279 5.8033920954 185.7877286077
141 1 2 0.0 0.3737738942 5.0540548816 187.0246955713
142 1 2 0.0 -0.0764733279 5.8033920954 188.2616625349
143 1 2 0.0 0.3737738942 5.0540548816 189.4986294985
144 1 2 0.0 -0.0764733279 5.8033920954 190.7355964621
145 1 2 0.0 0.3737738942 5.0540548816 191.9725634257
146 1 2 0.0 -0.0764733279 5.8033920954 193.2095303893
147 1 2 0.0 0.3737738942 5.0540548816 194.4464973529
148 1 2 0.0 -0.0764733279 5.8033920954 195.6834643165
149 1 2 0.0 0.3737738942 5.0540548816 196.9204312801
150 1 2 0.0 -0.0764733279 5.8033920954 198.1573982437
151 1 2 0.0 0.3737738942 5.0540548816 199.3943652073
152 1 2 0.0 -0.0764733279 5.8033920954 200.6313321709
153 1 2 0.0 0.3737738942 5.0540548816 201.8682991345
154 1 2 0.0 -0.0764733279 5.8033920954 203.1052660981
155 1 2 0.0 0.3737738942 5.0540548816 204.3422330617
156 1 2 0.0 -0.0764733279 5.8033920954 205.5792000253
157 1 2 0.0 0.3737738942 5.0540548816 206.8161669889
158 1 2 0.0 -0.0764733279 5.8033920954 208.0531339525
159 1 2 0.0 0.3737738942 5.0540548816 209.2901009161
160 1 2 0.0 -0.0764733279 5.8033920954 210.5270678797
161 1 2 0.0 0.3737738942 5.0540548816 211.7640348433
162 1 2 0.0 -0.0764733279 5.8033920954 213.0010018069
163 1 2 0.0 0.3737738942 5.0540548816 214.2379687705
164 1 2 0.0 -0.0764733279 5.8033920954 215.4749357341
165 1 2 0.0 0.3737738942 5.0540548816 216.7119026977
166 1 2 0.0 -0.0764733279 5.8033920954 217.9488696614
167 1 2 0.0 0.3737738942 5.0540548816 219.185836625
168 1 2 0.0 -0.0764733279 5.8033920954 220.4228035886
169 1 2 0.0 0.3737738942 5.0540548816 221.6597705522
170 1 2 0.0 -0.0764733279 5.8033920954 222.8967375158
171 1 2 0.0 0.3737738942 5.0540548816 224.1337044794
172 1 2 0.0 -0.0764733279 5.8033920954 225.370671443
173 1 2 0.0 0.3737738942 5.0540548816 226.6076384066
174 1 2 0.0 -0.0764733279 5.8033920954 227.8446053702
175 1 2 0.0 0.3737738942 5.0540548816 229.0815723338
176 1 2 0.0 -0.0764733279 5.8033920954 230.3185392974
177 1 2 0.0 0.3737738942 5.0540548816 231.555506261
178 1 2 0.0 -0.0764733279 5.8033920954 232.7924732246
179 1 2 0.0 0.3737738942 5.0540548816 234.0294401882
180 1 2 0.0 -0.0764733279 5.8033920954 235.2664071518
181 1 2 0.0 0.3737738942 5.0540548816 236.5033741154
182 1 2 0.0 -0.0764733279 5.8033920954 237.740341079
183 1 2 0.0 0.3737738942 5.0540548816 238.9773080426
184 1 2 0.0 -0.0764733279 5.8033920954 240.2142750062
185 1 2 0.0 0.3737738942 5.0540548816 241.4512419698
186 1 2 0.0 -0.0764733279 5.8033920954 242.6882089334
187 1 2 0.0 0.3737738942 5.0540548816 243.925175897
188 1 2 0.0 -0.0764733279 5.8033920954 245.1621428606
189 1 2 0.0 0.3737738942 5.0540548816 246.3991098242
190 1 2 0.0 -0.0764733279 5.8033920954 247.6360767878
191 1 2 0.0 0.3737738942 5.0540548816 248.8730437514
192 1 2 0.0 -0.0764733279 5.8033920954 250.110010715
193 1 2 0.0 0.3737738942 5.0540548816 251.3469776786
194 1 2 0.0 -0.0764733279 5.8033920954 252.5839446422
195 1 2 0.0 0.3737738942 5.0540548816 253.8209116059
196 1 2 0.0 -0.0764733279 5.8033920954 255.0578785695
197 1 2 0.0 0.3737738942 5.0540548816 256.2948455331
198 1 2 0.0 -0.0764733279 5.8033920954 257.5318124967
199 1 2 0.0 0.3737738942 5.0540548816 258.7687794603
200 1 2 0.0 -0.0764733279 5.8033920954 260.0057464239
201 1 2 0.0 0.3737738942 5.0540548816 261.2427133875
202 1 2 0.0 -0.0764733279 5.8033920954 262.4796803511
203 1 2 0.0 0.3737738942 5.0540548816 263.7166473147
204 1 2 0.0 -0.0764733279 5.8033920954 264.9536142783
205 1 2 0.0 0.3737738942 5.0540548816 266.1905812419
206 1 2 0.0 -0.0764733279 5.8033920954 267.4275482055
207 1 2 0.0 0.3737738942 5.0540548816 268.6645151691
208 1 2 0.0 -0.0764733279 5.8033920954 269.9014821327
209 1 2 0.0 0.3737738942 5.0540548816 271.1384490963
210 1 2 0.0 -0.0764733279 5.8033920954 272.3754160599
211 1 2 0.0 0.3737738942 5.0540548816 273.6123830235
212 1 2 0.0 -0.0764733279 5.8033920954 274.8493499871
213 1 2 0.0 0.3737738942 5.0540548816 276.0863169507
214 1 2 0.0 -0.0764733279 5.8033920954 277.3232839143
215 1 2 0.0 0.3737738942 5.0540548816 278.5602508779
216 1 2 0.0 -0.0764733279 5.8033920954 279.7972178415
217 1 2 0.0 0.3737738942 5.0540548816 281.0341848051
218 1 2 0.0 -0.0764733279 5.8033920954 282.2711517687
219 1 2 0.0 0.3737738942 5.0540548816 283.5081187323
220 1 2 0.0 -0.0764733279 5.8033920954 284.7450856959
221 1 2 0.0 0.3737738942 5.0540548816 285.9820526595
222 1 2 0.0 -0.0764733279 5.8033920954 287.2190196231
223 1 2 0.0 0.3737738942 5.0540548816 288.4559865867
224 1 2 0.0 -0.0764733279 5.8033920954 289.6929535503
225 1 2 0.0 0.3737738942 5.0540548816 290.929920514
226 1 2 0.0 -0.0764733279 5.8033920954 292.1668874776
227 1 2 0.0 0.3737738942 5.0540548816 293.4038544412
228 1 2 0.0 -0.0764733279 5.8033920954 294.6408214048
229 1 2 0.0 0.3737738942 5.0540548816 295.8777883684
230 1 2 0.0 -0.0764733279 5.8033920954 297.114755332
231 1 2 0.0 0.3737738942 5.0540548816 298.3517222956
232 1 2 0.0 -0.0764733279 5.8033920954 299.5886892592
233 1 2 0.0 0.3737738942 5.0540548816 300.8256562228
234 1 2 0.0 -0.0764733279 5.8033920954 302.0626231864
235 1 2 0.0 0.3737738942 5.0540548816 303.29959015
236 1 2 0.0 -0.0764733279 5.8033920954 304.5365571136
237 1 2 0.0 0.3737738942 5.0540548816 305.7735240772
238 1 2 0.0 -0.0764733279 5.8033920954 307.0104910408
239 1 2 0.0 0.3737738942 5.0540548816 308.2474580044
240 1 2 0.0 -0.0764733279 5.8033920954 309.484424968
241 1 2 0.0 0.3737738942 5.0540548816 310.7213919316
242 1 2 0.0 -0.0764733279 5.8033920954 311.9583588952
243 1 2 0.0 0.3737738942 5.0540548816 313.1953258588
244 1 2 0.0 -0.0764733279 5.8033920954 314.4322928224
245 1 2 0.0 0.3737738942 5.0540548816 315.669259786
246 1 2 0.0 -0.0764733279 5.8033920954 316.9062267496
247 1 2 0.0 0.3737738942 5.0540548816 318.1431937132
248 1 2 0.0 -0.0764733279 5.8033920954 319.3801606768
249 1 2 0.0 0.3737738942 5.0540548816 320.6171276404
250 1 2 0.0 -0.0764733279 5.8033920954 321.854094604
251 1 2 0.0 0.3737738942 5.0540548816 323.0910615676
252 1 2 0.0 -0.0764733279 5.8033920954 324.3280285312
253 1 2 0.0 0.3737738942 5.0540548816 325.5649954948
254 1 2 0.0 -0.0764733279 5.8033920954 326.8019624585
255 1 2 0.0 0.3737738942 5.0540548816 328.0389294221
256 1 2 0.0 -0.0764733279 5.8033920954 329.2758963857
257 1 2 0.0 0.3737738942 5.0540548816 330.5128633493
258 1 2 0.0 -0.0764733279 5.8033920954 331.7498303129
259 1 2 0.0 0.3737738942 5.0540548816 332.9867972765
260 1 2 0.0 -0.0764733279 5.8033920954 334.2237642401
261 1 2 0.0 0.3737738942 5.0540548816 335.4607312037
262 1 2 0.0 -0.0764733279 5.8033920954 336.6976981673
263 1 2 0.0 0.3737738942 5.0540548816 337.9346651309
264 1 2 0.0 -0.0764733279 5.8033920954 339.1716320945
265 1 2 0.0 0.3737738942 5.0540548816 340.4085990581
266 1 2 0.0 -0.0764733279 5.8033920954 341.6455660217
267 1 2 0.0 0.3737738942 5.0540548816 342.8825329853
268 1 2 0.0 -0.0764733279 5.8033920954 344.1194999489
269 1 2 0.0 0.3737738942 5.0540548816 345.3564669125
270 1 2 0.0 -0.0764733279 5.8033920954 346.5934338761
271 1 2 0.0 0.3737738942 5.0540548816 347.8304008397
272 1 2 0.0 -0.0764733279 5.8033920954 349.0673678033
273 1 2 0.0 0.3737738942 5.0540548816 350.3043347669
274 1 2 0.0 -0.0764733279 5.8033920954 351.5413017305
275 1 2 0.0 0.3737738942 5.0540548816 352.7782686941
276 1 2 0.0 -0.0764733279 5.8033920954 354.0152356577
277 1 2 0.0 0.3737738942 5.0540548816 355.2522026213
278 1 2 0.0 -0.0764733279 5.8033920954 356.4891695849
279 1 2 0.0 0.3737738942 5.0540548816 357.7261365485
280 1 2 0.0 -0.0764733279 5.8033920954 358.9631035121
281 1 2 0.0 0.3737738942 5.0540548816 360.2000704757
282 1 2 0.0 -0.0764733279 5.8033920954 361.4370374393
283 1 2 0.0 0.3737738942 5.0540548816 362.6740044029
284 1 2 0.0 -0.0764733279 5.8033920954 363.9109713666
285 1 2 0.0 0.3737738942 5.0540548816 365.1479383302
286 1 2 0.0 -0.0764733279 5.8033920954 366.3849052938
287 1 2 0.0 0.3737738942 5.0540548816 367.6218722574
288 1 2 0.0 -0.0764733279 5.8033920954 368.858839221
289 1 2 0.0 0.3737738942 5.0540548816 370.0958061846
290 1 2 0.0 -0.0764733279 5.8033920954 371.3327731482
291 1 2 0.0 0.3737738942 5.0540548816 372.5697401118
292 1 2 0.0 -0.0764733279 5.8033920954 373.8067070754
293 1 2 0.0 0.3737738942 5.0540548816 375.043674039
294 1 2 0.0 -0.0764733279 5.8033920954 376.2806410026
295 1 2 0.0 0.3737738942 5.0540548816 377.5176079662
296 1 2 0.0 -0.0764733279 5.8033920954 378.7545749298
297 1 2 0.0 0.3737738942 5.0540548816 379.9915418934
298 1 2 0.0 -0.0764733279 5.8033920954 381.228508857
299 1 2 0.0 0.3737738942 5.0540548816 382.4654758206
300 1 2 0.0 -0.0764733279 5.8033920954 383.7024427842
301 1 2 0.0 0.3737738942 5.0540548816 384.9394097478
302 1 2 0.0 -0.0764733279 5.8033920954 386.1763767114
303 1 2 0.0 0.3737738942 5.0540548816 387.413343675
304 1 2 0.0 -0.0764733279 5.8033920954 388.6503106386
305 1 2 0.0 0.3737738942 5.0540548816 389.8872776022
306 1 2 0.0 -0.0764733279 5.8033920954 391.1242445658
307 1 2 0.0 0.3737738942 5.0540548816 392.3612115294
308 1 2 0.0 -0.0764733279 5.8033920954 393.598178493
309 1 2 0.0 0.3737738942 5.0540548816 394.8351454566
310 1 2 0.0 -0.0764733279 5.8033920954 396.0721124202
311 1 2 0.0 0.3737738942 5.0540548816 397.3090793838
312 1 2 0.0 -0.0764733279 5.8033920954 398.5460463474
313 1 2 0.0 0.3737738942 5.0540548816 399.783013311
314 1 2 0.0 -0.0764733279 5.8033920954 401.0199802747
315 1 2 0.0 0.3737738942 5.0540548816 402.2569472383
316 1 2 0.0 -0.0764733279 5.8033920954 403.4939142019
317 1 2 0.0 0.3737738942 5.0540548816 404.7308811655
318 1 2 0.0 -0.0764733279 5.8033920954 405.9678481291
319 1 2 0.0 0.3737738942 5.0540548816 407.2048150927
320 1 2 0.0 -0.0764733279 5.8033920954 408.4417820563
321 1 2 0.0 0.3737738942 5.0540548816 409.6787490199
322 1 2 0.0 -0.0764733279 5.8033920954 410.9157159835
323 1 2 0.0 0.3737738942 5.0540548816 412.1526829471
324 1 2 0.0 -0.0764733279 5.8033920954 413.3896499107
325 1 2 0.0 0.3737738942 5.0540548816 414.6266168743
326 1 2 0.0 -0.0764733279 5.8033920954 415.8635838379
327 1 2 0.0 0.3737738942 5.0540548816 417.1005508015
328 1 2 0.0 -0.0764733279 5.8033920954 418.3375177651
329 1 2 0.0 0.3737738942 5.0540548816 419.5744847287
330 1 2 0.0 -0.0764733279 5.8033920954 420.8114516923
331 1 2 0.0 0.3737738942 5.0540548816 422.0484186559
332 1 2 0.0 -0.0764733279 5.8033920954 423.2853856195
333 1 2 0.0 0.3737738942 5.0540548816 424.5223525831
334 1 2 0.0 -0.0764733279 5.8033920954 425.7593195467
335 1 2 0.0 0.3737738942 5.0540548816 426.9962865103
336 1 2 0.0 -0.0764733279 5.8033920954 428.2332534739
337 1 2 0.0 0.3737738942 5.0540548816 429.4702204375
338 1 2 0.0 -0.0764733279 5.8033920954 430.7071874011
339 1 2 0.0 0.3737738942 5.0540548816 431.9441543647
340 1 2 0.0 -0.0764733279 5.8033920954 433.1811213283
341 1 2 0.0 0.3737738942 5.0540548816 434.4180882919
342 1 2 0.0 -0.0764733279 5.8033920954 435.6550552555
343 1 2 0.0 0.3737738942 5.0540548816 436.8920222192
344 1 2 0.0 -0.0764733279 5.8033920954 438.1289891828
345 1 2 0.0 0.3737738942 5.0540548816 439.3659561464
346 1 2 0.0 -0.0764733279 5.8033920954 440.60292311
347 1 2 0.0 0.3737738942 5.0540548816 441.8398900736
348 1 2 0.0 -0.0764733279 5.8033920954 443.0768570372
349 1 2 0.0 0.3737738942 5.0540548816 444.3138240008
350 1 2 0.0 -0.0764733279 5.8033920954 445.5507909644
351 1 2 0.0 0.3737738942 5.0540548816 446.787757928
352 1 2 0.0 -0.0764733279 5.8033920954 448.0247248916
353 1 2 0.0 0.3737738942 5.0540548816 449.2616918552
354 1 2 0.0 -0.0764733279 5.8033920954 450.4986588188
355 1 2 0.0 0.3737738942 5.0540548816 451.7356257824
356 1 2 0.0 -0.0764733279 5.8033920954 452.972592746
357 1 2 0.0 0.3737738942 5.0540548816 454.2095597096
358 1 2 0.0 -0.0764733279 5.8033920954 455.4465266732
359 1 2 0.0 0.3737738942 5.0540548816 456.6834936368
360 1 2 0.0 -0.0764733279 5.8033920954 457.9204606004
361 1 2 0.0 0.3737738942 5.0540548816 459.157427564
362 1 2 0.0 -0.0764733279 5.8033920954 460.3943945276
363 1 2 0.0 0.3737738942 5.0540548816 461.6313614912
364 1 2 0.0 -0.0764733279 5.8033920954 462.8683284548
365 1 2 0.0 0.3737738942 5.0540548816 464.1052954184
366 1 2 0.0 -0.0764733279 5.8033920954 465.342262382
367 1 2 0.0 0.3737738942 5.0540548816 466.5792293456
368 1 2 0.0 -0.0764733279 5.8033920954 467.8161963092
369 1 2 0.0 0.3737738942 5.0540548816 469.0531632728
370 1 2 0.0 -0.0764733279 5.8033920954 470.2901302364
371 1 2 0.0 0.3737738942 5.0540548816 471.5270972
372 1 2 0.0 -0.0764733279 5.8033920954 472.7640641636
373 1 2 0.0 0.3737738942 5.0540548816 474.0010311273
374 1 2 0.0 -0.0764733279 5.8033920954 475.2379980909
375 1 2 0.0 0.3737738942 5.0540548816 476.4749650545
376 1 2 0.0 -0.0764733279 5.8033920954 477.7119320181
377 1 2 0.0 0.3737738942 5.0540548816 478.9488989817
378 1 2 0.0 -0.0764733279 5.8033920954 480.1858659453
379 1 2 0.0 0.3737738942 5.0540548816 481.4228329089
380 1 2 0.0 -0.0764733279 5.8033920954 482.6597998725
381 1 2 0.0 0.3737738942 5.0540548816 483.8967668361
382 1 2 0.0 -0.0764733279 5.8033920954 485.1337337997
383 1 2 0.0 0.3737738942 5.0540548816 486.3707007633
384 1 2 0.0 -0.0764733279 5.8033920954 487.6076677269
385 1 2 0.0 0.3737738942 5.0540548816 488.8446346905
386 1 2 0.0 -0.0764733279 5.8033920954 490.0816016541
387 1 2 0.0 0.3737738942 5.0540548816 491.3185686177
388 1 2 0.0 -0.0764733279 5.8033920954 492.5555355813
389 1 2 0.0 0.3737738942 5.0540548816 493.7925025449
390 1 2 0.0 -0.0764733279 5.8033920954 495.0294695085
391 1 2 0.0 0.3737738942 5.0540548816 496.2664364721
392 1 2 0.0 -0.0764733279 5.8033920954 497.5034034357
393 1 2 0.0 0.3737738942 5.0540548816 498.7403703993
394 1 2 0.0 -0.0764733279 5.8033920954 499.9773373629
395 1 2 0.0 0.3737738942 5.0540548816 501.2143043265
396 1 2 0.0 -0.0764733279 5.8033920954 502.4512712901
397 1 2 0.0 0.3737738942 5.0540548816 503.6882382537
398 1 2 0.0 -0.0764733279 5.8033920954 504.9252052173
399 1 2 0.0 0.3737738942 5.0540548816 506.1621721809
400 1 2 0.0 -0.0764733279 5.8033920954 507.3991391445
401 1 2 0.0 0.3737738942 5.0540548816 508.6361061081
402 1 2 0.0 -0.0764733279 5.8033920954 509.8730730718
403 1 2 0.0 0.3737738942 5.0540548816 511.1100400354
404 1 2 0.0 -0.0764733279 5.8033920954 512.347006999
405 1 2 0.0 0.3737738942 5.0540548816 513.5839739626
406 1 2 0.0 -0.0764733279 5.8033920954 514.8209409262
407 1 2 0.0 0.3737738942 5.0540548816 516.0579078898
408 1 2 0.0 -0.0764733279 5.8033920954 517.2948748534
409 1 2 0.0 0.3737738942 5.0540548816 518.531841817
410 1 2 0.0 -0.0764733279 5.8033920954 519.7688087806
411 1 2 0.0 0.3737738942 5.0540548816 521.0057757442
412 1 2 0.0 -0.0764733279 5.8033920954 522.2427427078
413 1 2 0.0 0.3737738942 5.0540548816 523.4797096714
414 1 2 0.0 -0.0764733279 5.8033920954 524.716676635
415 1 2 0.0 0.3737738942 5.0540548816 525.9536435986
416 1 2 0.0 -0.0764733279 5.8033920954 527.1906105622
417 1 2 0.0 0.3737738942 5.0540548816 528.4275775258
418 1 2 0.0 -0.0764733279 5.8033920954 529.6645444894
419 1 2 0.0 0.3737738942 5.0540548816 530.901511453
420 1 2 0.0 -0.0764733279 5.8033920954 532.1384784166
421 1 2 0.0 0.3737738942 5.0540548816 533.3754453802
422 1 2 0.0 -0.0764733279 5.8033920954 534.6124123438
423 1 2 0.0 0.3737738942 5.0540548816 535.8493793074
424 1 2 0.0 -0.0764733279 5.8033920954 537.086346271
425 1 2 0.0 0.3737738942 5.0540548816 538.3233132346
426 1 2 0.0 -0.0764733279 5.8033920954 539.5602801982
427 1 2 0.0 0.3737738942 5.0540548816 540.7972471618
428 1 2 0.0 -0.0764733279 5.8033920954 542.0342141254
429 1 2 0.0 0.3737738942 5.0540548816 543.271181089
430 1 2 0.0 -0.0764733279 5.8033920954 544.5081480526
431 1 2 0.0 0.3737738942 5.0540548816 545.7451150162
432 1 2 0.0 -0.0764733279 5.8033920954 546.9820819799
433 1 2 0.0 0.3737738942 5.0540548816 548.2190489435
434 1 2 0.0 -0.0764733279 5.8033920954 549.4560159071
435 1 2 0.0 0.3737738942 5.0540548816 550.6929828707
436 1 2 0.0 -0.0764733279 5.8033920954 551.9299498343
437 1 2 0.0 0.3737738942 5.0540548816 553.1669167979
438 1 2 0.0 -0.0764733279 5.8033920954 554.4038837615
439 1 2 0.0 0.3737738942 5.0540548816 555.6408507251
440 1 2 0.0 -0.0764733279 5.8033920954 556.8778176887
441 1 2 0.0 0.3737738942 5.0540548816 558.1147846523
442 1 2 0.0 -0.0764733279 5.8033920954 559.3517516159
443 1 2 0.0 0.3737738942 5.0540548816 560.5887185795
444 1 2 0.0 -0.0764733279 5.8033920954 561.8256855431
445 1 2 0.0 0.3737738942 5.0540548816 563.0626525067
446 1 2 0.0 -0.0764733279 5.8033920954 564.2996194703
447 1 2 0.0 0.3737738942 5.0540548816 565.5365864339
448 1 2 0.0 -0.0764733279 5.8033920954 566.7735533975
449 1 2 0.0 0.3737738942 5.0540548816 568.0105203611
450 1 2 0.0 -0.0764733279 5.8033920954 569.2474873247
451 1 2 0.0 0.3737738942 5.0540548816 570.4844542883
452 1 2 0.0 -0.0764733279 5.8033920954 571.7214212519
453 1 2 0.0 0.3737738942 5.0540548816 572.9583882155
454 1 2 0.0 -0.0764733279 5.8033920954 574.1953551791
455 1 2 0.0 0.3737738942 5.0540548816 575.4323221427
456 1 2 0.0 -0.0764733279 5.8033920954 576.6692891063
457 1 2 0.0 0.3737738942 5.0540548816 577.9062560699
458 1 2 0.0 -0.0764733279 5.8033920954 579.1432230335
459 1 2 0.0 0.3737738942 5.0540548816 580.3801899971
460 1 2 0.0 -0.0764733279 5.8033920954 581.6171569607
461 1 2 0.0 0.3737738942 5.0540548816 582.8541239244
462 1 2 0.0 -0.0764733279 5.8033920954 584.091090888
463 1 2 0.0 0.3737738942 5.0540548816 585.3280578516
464 1 2 0.0 -0.0764733279 5.8033920954 586.5650248152
465 1 2 0.0 0.3737738942 5.0540548816 587.8019917788
466 1 2 0.0 -0.0764733279 5.8033920954 589.0389587424
467 1 2 0.0 0.3737738942 5.0540548816 590.275925706
468 1 2 0.0 -0.0764733279 5.8033920954 591.5128926696
469 1 2 0.0 0.3737738942 5.0540548816 592.7498596332
470 1 2 0.0 -0.0764733279 5.8033920954 593.9868265968
471 1 2 0.0 0.3737738942 5.0540548816 595.2237935604
472 1 2 0.0 -0.0764733279 5.8033920954 596.460760524
473 1 2 0.0 0.3737738942 5.0540548816 597.6977274876
474 1 2 0.0 -0.0764733279 5.8033920954 598.9346944512
475 1 2 0.0 0.3737738942 5.0540548816 600.1716614148
476 1 2 0.0 -0.0764733279 5.8033920954 601.4086283784
477 1 2 0.0 0.3737738942 5.0540548816 602.645595342
478 1 2 0.0 -0.0764733279 5.8033920954 603.8825623056
479 1 2 0.0 0.3737738942 5.0540548816 605.1195292692
480 1 2 0.0 -0.0764733279 5.8033920954 606.3564962328
481 1 2 0.0 0.3737738942 5.0540548816 607.5934631964
482 1 2 0.0 -0.0764733279 5.8033920954 608.83043016
483 1 2 0.0 0.3737738942 5.0540548816 610.0673971236
484 1 2 0.0 -0.0764733279 5.8033920954 611.3043640872
485 1 2 0.0 0.3737738942 5.0540548816 612.5413310508
486 1 2 0.0 -0.0764733279 5.8033920954 613.7782980144
487 1 2 0.0 0.3737738942 5.0540548816 615.015264978
488 1 2 0.0 -0.0764733279 5.8033920954 616.2522319416
489 1 2 0.0 0.3737738942 5.0540548816 617.4891989052
490 1 2 0.0 -0.0764733279 5.8033920954 618.7261658689
491 1 2 0.0 0.3737738942 5.0540548816 619.9631328325
492 1 2 0.0 -0.0764733279 5.8033920954 621.2000997961
493 1 2 0.0 0.3737738942 5.0540548816 622.4370667597
494 1 2 0.0 -0.0764733279 5.8033920954 623.6740337233
495 1 2 0.0 0.3737738942 5.0540548816 624.9110006869
496 1 2 0.0 -0.0764733279 5.8033920954 626.1479676505
497 1 2 0.0 0.3737738942 5.0540548816 627.3849346141
498 1 2 0.0 -0.0764733279 5.8033920954 628.6219015777
499 1 2 0.0 0.3737738942 5.0540548816 629.8588685413
500 1 2 0.0 -0.0764733279 5.8033920954 631.0958355049
501 1 2 0.0 0.3737738942 5.0540548816 632.3328024685
502 1 2 0.0 -0.0764733279 5.8033920954 633.5697694321
503 1 2 0.0 0.3737738942 5.0540548816 634.8067363957
504 1 2 0.0 -0.0764733279 5.8033920954 636.0437033593
505 1 2 0.0 0.3737738942 5.0540548816 637.2806703229
506 1 2 0.0 -0.0764733279 5.8033920954 638.5176372865
507 1 2 0.0 0.3737738942 5.0540548816 639.7546042501
508 1 2 0.0 -0.0764733279 5.8033920954 640.9915712137
509 1 2 0.0 0.3737738942 5.0540548816 642.2285381773
510 1 2 0.0 -0.0764733279 5.8033920954 643.4655051409
511 1 2 0.0 0.3737738942 5.0540548816 644.7024721045
512 1 2 0.0 -0.0764733279 5.8033920954 645.9394390681
513 1 2 0.0 0.3737738942 5.0540548816 647.1764060317
514 1 2 0.0 -0.0764733279 5.8033920954 648.4133729953
515 1 2 0.0 0.3737738942 5.0540548816 649.6503399589
516 1 2 0.0 -0.0764733279 5.8033920954 650.8873069225
517 1 2 0.0 0.3737738942 5.0540548816 652.1242738861
518 1 2 0.0 -0.0764733279 5.8033920954 653.3612408497
519 1 2 0.0 0.3737738942 5.0540548816 654.5982078134
520 1 2 0.0 -0.0764733279 5.8033920954 655.835174777
521 1 2 0.0 0.3737738942 5.0540548816 657.0721417406
522 1 2 0.0 -0.0764733279 5.8033920954 658.3091087042
523 1 2 0.0 0.3737738942 5.0540548816 659.5460756678
524 1 2 0.0 -0.0764733279 5.8033920954 660.7830426314
525 1 2 0.0 0.3737738942 5.0540548816 662.020009595
526 1 2 0.0 -0.0764733279 5.8033920954 663.2569765586
527 1 2 0.0 0.3737738942 5.0540548816 664.4939435222
528 1 2 0.0 -0.0764733279 5.8033920954 665.7309104858
529 1 2 0.0 0.3737738942 5.0540548816 666.9678774494
530 1 2 0.0 -0.0764733279 5.8033920954 668.204844413
531 1 2 0.0 0.3737738942 5.0540548816 669.4418113766
532 1 2 0.0 -0.0764733279 5.8033920954 670.6787783402
533 1 2 0.0 0.3737738942 5.0540548816 671.9157453038
534 1 2 0.0 -0.0764733279 5.8033920954 673.1527122674
535 1 2 0.0 0.3737738942 5.0540548816 674.389679231
536 1 2 0.0 -0.0764733279 5.8033920954 675.6266461946
537 1 2 0.0 0.3737738942 5.0540548816 676.8636131582
538 1 2 0.0 -0.0764733279 5.8033920954 678.1005801218
539 1 2 0.0 0.3737738942 5.0540548816 679.3375470854
540 1 2 0.0 -0.0764733279 5.8033920954 680.574514049
541 1 2 0.0 0.3737738942 5.0540548816 681.8114810126
542 1 2 0.0 -0.0764733279 5.8033920954 683.0484479762
543 1 2 0.0 0.3737738942 5.0540548816 684.2854149398
544 1 2 0.0 -0.0764733279 5.8033920954 685.5223819034
545 1 2 0.0 0.3737738942 5.0540548816 686.759348867
546 1 2 0.0 -0.0764733279 5.8033920954 687.9963158306
547 1 2 0.0 0.3737738942 5.0540548816 689.2332827942
548 1 2 0.0 -0.0764733279 5.8033920954 690.4702497579
549 1 2 0.0 0.3737738942 5.0540548816 691.7072167215