# LAMMPS data file written by OVITO Basic 3.5.2
112 atoms
36 bonds
3 atom types
3 bond types
0.0 8.6336994 xlo xhi
0.0 9.9694004 ylo yhi
0.0 26.5988999 zlo zhi

Atoms  # full

1 1 1 0.0 0.0 0.0 0.0
2 1 1 0.0 0.0 3.3231349 4.6996022
3 1 1 0.0 0.0 1.6615651 2.3497977
4 1 1 0.0 1.43895 4.1539149 2.3497977
5 1 1 0.0 1.43895 0.830785 4.6996022
6 1 1 0.0 1.43895 2.4923501 0.0
7 1 1 0.0 0.0 0.0 7.0493999
8 1 1 0.0 0.0 3.3231349 11.7490025
9 1 1 0.0 0.0 1.6615651 9.3991976
10 1 1 0.0 1.43895 4.1539149 9.3991976
11 1 1 0.0 1.43895 0.830785 11.7490025
12 1 1 0.0 1.43895 2.4923501 7.0493999
13 1 1 0.0 0.0 4.9847002 0.0
14 1 1 0.0 0.0 8.3078346 4.6996022
15 1 1 0.0 0.0 6.6462651 2.3497977
16 1 1 0.0 1.43895 9.1386147 2.3497977
17 1 1 0.0 1.43895 5.815485 4.6996022
18 1 1 0.0 1.43895 7.4770503 0.0
19 1 1 0.0 0.0 4.9847002 7.0493999
20 1 1 0.0 0.0 8.3078346 11.7490025
21 1 1 0.0 0.0 6.6462651 9.3991976
22 1 1 0.0 1.43895 9.1386147 9.3991976
23 1 1 0.0 1.43895 5.815485 11.7490025
24 1 1 0.0 1.43895 7.4770503 7.0493999
25 1 1 0.0 2.8779 0.0 0.0
26 1 1 0.0 2.8779 3.3231349 4.6996022
27 1 1 0.0 2.8779 1.6615651 2.3497977
28 1 1 0.0 4.3168497 4.1539149 2.3497977
29 1 1 0.0 4.3168497 0.830785 4.6996022
30 1 1 0.0 4.3168497 2.4923501 0.0
31 1 1 0.0 2.8779 0.0 7.0493999
32 1 1 0.0 2.8779 3.3231349 11.7490025
33 1 1 0.0 2.8779 1.6615651 9.3991976
34 1 1 0.0 4.3168497 4.1539149 9.3991976
35 1 1 0.0 4.3168497 0.830785 11.7490025
36 1 1 0.0 4.3168497 2.4923501 7.0493999
37 1 1 0.0 2.8779 4.9847002 0.0
38 1 1 0.0 2.8779 8.3078346 4.6996022
39 1 1 0.0 2.8779 6.6462651 2.3497977
40 1 1 0.0 4.3168497 9.1386147 2.3497977
41 1 1 0.0 4.3168497 5.815485 4.6996022
42 1 1 0.0 4.3168497 7.4770503 0.0
43 1 1 0.0 2.8779 4.9847002 7.0493999
44 1 1 0.0 2.8779 8.3078346 11.7490025
45 1 1 0.0 2.8779 6.6462651 9.3991976
46 1 1 0.0 4.3168497 9.1386147 9.3991976
47 1 1 0.0 4.3168497 5.815485 11.7490025
48 1 1 0.0 4.3168497 7.4770503 7.0493999
49 1 1 0.0 5.7557998 0.0 0.0
50 1 1 0.0 5.7557998 3.3231349 4.6996022
51 1 1 0.0 5.7557998 1.6615651 2.3497977
52 1 1 0.0 7.1947498 4.1539149 2.3497977
53 1 1 0.0 7.1947498 0.830785 4.6996022
54 1 1 0.0 7.1947498 2.4923501 0.0
55 1 1 0.0 5.7557998 0.0 7.0493999
56 1 1 0.0 5.7557998 3.3231349 11.7490025
57 1 1 0.0 5.7557998 1.6615651 9.3991976
58 1 1 0.0 7.1947498 4.1539149 9.3991976
59 1 1 0.0 7.1947498 0.830785 11.7490025
60 1 1 0.0 7.1947498 2.4923501 7.0493999
61 1 1 0.0 5.7557998 4.9847002 0.0
62 1 1 0.0 5.7557998 8.3078346 4.6996022
63 1 1 0.0 5.7557998 6.6462651 2.3497977
64 1 1 0.0 7.1947498 9.1386147 2.3497977
65 1 1 0.0 7.1947498 5.815485 4.6996022
66 1 1 0.0 7.1947498 7.4770503 0.0
67 1 1 0.0 5.7557998 4.9847002 7.0493999
68 1 1 0.0 5.7557998 8.3078346 11.7490025
69 1 1 0.0 5.7557998 6.6462651 9.3991976
70 1 1 0.0 7.1947498 9.1386147 9.3991976
71 1 1 0.0 7.1947498 5.815485 11.7490025
72 1 1 0.0 7.1947498 7.4770503 7.0493999
73 1 2 0.0 2.4291096 7.8222962 19.7313614
74 1 2 0.0 2.4403076 7.7673984 18.2021122
75 1 2 0.0 3.4151828 6.8488088 20.383524
76 1 2 0.0 1.4607604 8.7815943 17.6040859
77 1 2 0.0 3.3520901 6.8503838 21.9139234
78 1 2 0.0 1.4919456 8.7444687 16.0725479
79 1 2 0.0 4.38058 5.88624 22.500391
80 1 2 0.0 0.5311376 9.7348337 15.4154596
81 1 3 0.0 4.2977057 5.884121 24.3144856
82 1 3 0.0 0.5443222 9.6315642 13.6016875
83 1 2 0.0 2.2291095 3.2222963 19.7313614
84 1 2 0.0 2.2403076 3.1673982 18.2021122
85 1 2 0.0 3.2151828 2.2488089 20.383524
86 1 2 0.0 1.2607604 4.1815944 17.6040859
87 1 2 0.0 3.1520901 2.2503836 21.9139234
88 1 2 0.0 1.2919456 4.1444693 16.0725479
89 1 2 0.0 4.1805801 1.2862402 22.500391
90 1 2 0.0 0.3311376 5.1348343 15.4154596
91 1 3 0.0 4.0977058 1.2841209 24.3144856
92 1 3 0.0 0.3443222 5.0315642 13.6016875
93 1 2 0.0 6.2291098 0.8222963 19.7313614
94 1 2 0.0 6.2403078 0.7673983 18.2021122
95 1 2 0.0 7.2151828 -0.1511911 20.383524
96 1 2 0.0 5.2607603 1.7815942 17.6040859
97 1 2 0.0 7.1520901 -0.1496164 21.9139234
98 1 2 0.0 5.2919455 1.7444691 16.0725479
99 1 2 0.0 8.1805801 -1.1137598 22.500391
100 1 2 0.0 4.3311377 2.7348342 15.4154596
101 1 3 0.0 8.0977058 -1.1158791 24.3144856
102 1 3 0.0 4.3443222 2.6315642 13.6016875
103 1 2 0.0 6.2291098 5.8222962 19.7313614
104 1 2 0.0 6.2403078 5.7673984 18.2021122
105 1 2 0.0 7.2151828 4.8488088 20.383524
106 1 2 0.0 5.2607603 6.7815943 17.6040859
107 1 2 0.0 7.1520901 4.8503838 21.9139234
108 1 2 0.0 5.2919455 6.7444692 16.0725479
109 1 2 0.0 8.1805801 3.8862402 22.500391
110 1 2 0.0 4.3311377 7.7348342 15.4154596
111 1 3 0.0 8.0977058 3.884121 24.3144856
112 1 3 0.0 4.3443222 7.6315642 13.6016875

Bonds

1 3 73 75
2 3 73 74
3 3 74 76
4 3 75 77
5 3 76 78
6 3 77 79
7 3 78 80
8 3 79 81
9 3 80 82
10 3 83 85
11 3 83 84
12 3 84 86
13 3 85 87
14 3 86 88
15 3 87 89
16 3 88 90
17 3 89 91
18 3 90 92
19 3 93 94
20 3 93 95
21 3 94 96
22 3 95 97
23 3 96 98
24 3 97 99
25 3 98 100
26 3 99 101
27 3 100 102
28 3 103 104
29 3 103 105
30 3 104 106
31 3 105 107
32 3 106 108
33 3 107 109
34 3 108 110
35 3 109 111
36 3 110 112
